version 2
run nodebug-0-20160707-10:37:38-27077
attr configname nodebug
attr datetime 20160707-10:37:38
attr experiment nodebug
attr inifile omnetpp.ini
attr iterationvars ""
attr iterationvars2 $repetition=0
attr measurement ""
attr network RSUExampleScenario
attr processid 27077
attr repetition 0
attr replication #0
attr resultdir results
attr runnumber 0
attr seedset 0

vector 8  RSUExampleScenario.node[0].veinsmobility  posx  ETV
vector 9  RSUExampleScenario.node[0].veinsmobility  posy  ETV
vector 10  RSUExampleScenario.node[0].veinsmobility  speed  ETV
vector 11  RSUExampleScenario.node[0].veinsmobility  acceleration  ETV
vector 12  RSUExampleScenario.node[0].veinsmobility  co2emission  ETV
vector 17  RSUExampleScenario.node[1].veinsmobility  posx  ETV
vector 18  RSUExampleScenario.node[1].veinsmobility  posy  ETV
vector 19  RSUExampleScenario.node[1].veinsmobility  speed  ETV
vector 20  RSUExampleScenario.node[1].veinsmobility  acceleration  ETV
vector 21  RSUExampleScenario.node[1].veinsmobility  co2emission  ETV
vector 26  RSUExampleScenario.node[2].veinsmobility  posx  ETV
vector 27  RSUExampleScenario.node[2].veinsmobility  posy  ETV
vector 28  RSUExampleScenario.node[2].veinsmobility  speed  ETV
vector 29  RSUExampleScenario.node[2].veinsmobility  acceleration  ETV
vector 30  RSUExampleScenario.node[2].veinsmobility  co2emission  ETV
vector 35  RSUExampleScenario.node[3].veinsmobility  posx  ETV
vector 36  RSUExampleScenario.node[3].veinsmobility  posy  ETV
vector 37  RSUExampleScenario.node[3].veinsmobility  speed  ETV
vector 38  RSUExampleScenario.node[3].veinsmobility  acceleration  ETV
vector 39  RSUExampleScenario.node[3].veinsmobility  co2emission  ETV
vector 44  RSUExampleScenario.node[4].veinsmobility  posx  ETV
vector 45  RSUExampleScenario.node[4].veinsmobility  posy  ETV
vector 46  RSUExampleScenario.node[4].veinsmobility  speed  ETV
vector 47  RSUExampleScenario.node[4].veinsmobility  acceleration  ETV
vector 48  RSUExampleScenario.node[4].veinsmobility  co2emission  ETV
vector 53  RSUExampleScenario.node[5].veinsmobility  posx  ETV
vector 54  RSUExampleScenario.node[5].veinsmobility  posy  ETV
vector 55  RSUExampleScenario.node[5].veinsmobility  speed  ETV
vector 56  RSUExampleScenario.node[5].veinsmobility  acceleration  ETV
vector 57  RSUExampleScenario.node[5].veinsmobility  co2emission  ETV
vector 62  RSUExampleScenario.node[6].veinsmobility  posx  ETV
vector 63  RSUExampleScenario.node[6].veinsmobility  posy  ETV
vector 64  RSUExampleScenario.node[6].veinsmobility  speed  ETV
vector 65  RSUExampleScenario.node[6].veinsmobility  acceleration  ETV
vector 66  RSUExampleScenario.node[6].veinsmobility  co2emission  ETV
vector 71  RSUExampleScenario.node[7].veinsmobility  posx  ETV
vector 72  RSUExampleScenario.node[7].veinsmobility  posy  ETV
vector 73  RSUExampleScenario.node[7].veinsmobility  speed  ETV
vector 74  RSUExampleScenario.node[7].veinsmobility  acceleration  ETV
vector 75  RSUExampleScenario.node[7].veinsmobility  co2emission  ETV
vector 80  RSUExampleScenario.node[8].veinsmobility  posx  ETV
vector 81  RSUExampleScenario.node[8].veinsmobility  posy  ETV
vector 82  RSUExampleScenario.node[8].veinsmobility  speed  ETV
vector 83  RSUExampleScenario.node[8].veinsmobility  acceleration  ETV
vector 84  RSUExampleScenario.node[8].veinsmobility  co2emission  ETV
vector 89  RSUExampleScenario.node[9].veinsmobility  posx  ETV
vector 90  RSUExampleScenario.node[9].veinsmobility  posy  ETV
vector 91  RSUExampleScenario.node[9].veinsmobility  speed  ETV
vector 92  RSUExampleScenario.node[9].veinsmobility  acceleration  ETV
vector 93  RSUExampleScenario.node[9].veinsmobility  co2emission  ETV
vector 98  RSUExampleScenario.node[10].veinsmobility  posx  ETV
vector 99  RSUExampleScenario.node[10].veinsmobility  posy  ETV
vector 100  RSUExampleScenario.node[10].veinsmobility  speed  ETV
vector 101  RSUExampleScenario.node[10].veinsmobility  acceleration  ETV
vector 102  RSUExampleScenario.node[10].veinsmobility  co2emission  ETV
vector 107  RSUExampleScenario.node[11].veinsmobility  posx  ETV
vector 108  RSUExampleScenario.node[11].veinsmobility  posy  ETV
vector 109  RSUExampleScenario.node[11].veinsmobility  speed  ETV
vector 110  RSUExampleScenario.node[11].veinsmobility  acceleration  ETV
vector 111  RSUExampleScenario.node[11].veinsmobility  co2emission  ETV
vector 116  RSUExampleScenario.node[12].veinsmobility  posx  ETV
vector 117  RSUExampleScenario.node[12].veinsmobility  posy  ETV
vector 118  RSUExampleScenario.node[12].veinsmobility  speed  ETV
vector 119  RSUExampleScenario.node[12].veinsmobility  acceleration  ETV
vector 120  RSUExampleScenario.node[12].veinsmobility  co2emission  ETV
vector 125  RSUExampleScenario.node[13].veinsmobility  posx  ETV
vector 126  RSUExampleScenario.node[13].veinsmobility  posy  ETV
vector 127  RSUExampleScenario.node[13].veinsmobility  speed  ETV
vector 128  RSUExampleScenario.node[13].veinsmobility  acceleration  ETV
vector 129  RSUExampleScenario.node[13].veinsmobility  co2emission  ETV
vector 134  RSUExampleScenario.node[14].veinsmobility  posx  ETV
vector 135  RSUExampleScenario.node[14].veinsmobility  posy  ETV
vector 136  RSUExampleScenario.node[14].veinsmobility  speed  ETV
vector 137  RSUExampleScenario.node[14].veinsmobility  acceleration  ETV
vector 138  RSUExampleScenario.node[14].veinsmobility  co2emission  ETV
vector 143  RSUExampleScenario.node[15].veinsmobility  posx  ETV
vector 144  RSUExampleScenario.node[15].veinsmobility  posy  ETV
vector 145  RSUExampleScenario.node[15].veinsmobility  speed  ETV
vector 146  RSUExampleScenario.node[15].veinsmobility  acceleration  ETV
vector 147  RSUExampleScenario.node[15].veinsmobility  co2emission  ETV
vector 152  RSUExampleScenario.node[16].veinsmobility  posx  ETV
vector 153  RSUExampleScenario.node[16].veinsmobility  posy  ETV
vector 154  RSUExampleScenario.node[16].veinsmobility  speed  ETV
vector 155  RSUExampleScenario.node[16].veinsmobility  acceleration  ETV
vector 156  RSUExampleScenario.node[16].veinsmobility  co2emission  ETV
vector 161  RSUExampleScenario.node[17].veinsmobility  posx  ETV
vector 162  RSUExampleScenario.node[17].veinsmobility  posy  ETV
vector 163  RSUExampleScenario.node[17].veinsmobility  speed  ETV
vector 164  RSUExampleScenario.node[17].veinsmobility  acceleration  ETV
vector 165  RSUExampleScenario.node[17].veinsmobility  co2emission  ETV
vector 170  RSUExampleScenario.node[18].veinsmobility  posx  ETV
vector 171  RSUExampleScenario.node[18].veinsmobility  posy  ETV
vector 172  RSUExampleScenario.node[18].veinsmobility  speed  ETV
vector 173  RSUExampleScenario.node[18].veinsmobility  acceleration  ETV
vector 174  RSUExampleScenario.node[18].veinsmobility  co2emission  ETV
12	4	0.3	1.4276208928798
12	5	0.4	1.5553504369406
12	6	0.5	1.6547258140606
12	7	0.6	1.7983555805977
12	8	0.7	1.8323674505787
12	9	0.8	2.0110897446338
12	10	0.9	1.970451684244
12	11	1	2.244901373431
12	12	1.1	2.2119208452933
12	13	1.2	2.2548819012347
12	14	1.3	2.5345448660167
12	15	1.4	2.6013847819414
12	16	1.5	2.852151772081
12	17	1.6	2.3526342216865
12	18	1.7	3.339605186172
12	19	1.8	2.4276646371033
12	20	1.9	3.3234379637286
12	21	2	3.3108190720898
12	22	2.1	3.2988402737822
12	23	2.2	2.9578171889378
12	24	2.3	2.9959376211745
12	25	2.4	3.4908200907348
12	26	2.5	3.6670806850063
12	27	2.6	3.6268696198063
12	28	2.7	4.0205201967415
12	29	2.8	3.1988957479633
12	30	2.9	3.4137976506977
12	31	3	4.907912272511
12	32	3.1	4.5496391886597
12	33	3.2	5.1843707050129
12	34	3.3	5.490502883119
12	35	3.4	3.8970556575359
12	36	3.5	4.0812734992789
12	37	3.6	3.9458891055838
12	38	3.7	3.7593760917064
12	39	3.8	4.2273339749307
12	40	3.9	5.1045553963918
12	41	4	4.4294934204996
12	42	4.1	6.1704815888201
12	43	4.2	4.9722185416067
12	44	4.3	6.3796667209292
12	45	4.4	4.3550328563445
12	46	4.5	5.5724689565354
12	47	4.6	5.9783016536976
12	48	4.7	6.531517038645
12	49	4.8	5.1600288586713
12	50	4.9	6.1886912441601
12	51	5	5.9549957283831
12	52	5.1	7.7853608744789
12	53	5.2	6.0293065596097
12	54	5.3	6.1389862136434
12	55	5.4	6.215380184048
12	56	5.5	5.2080809029875
12	57	5.6	6.1561018361202
12	58	5.7	7.3629412347938
12	59	5.8	7.2141082079045
12	60	5.9	6.3899916329279
12	61	6	8.8173762262081
12	62	6.1	6.712915009577
12	63	6.2	6.7856909201694
12	64	6.3	8.0773156423548
12	65	6.4	8.3743676988308
12	66	6.5	8.4713421478856
12	67	6.6	8.1436375074094
12	68	6.7	6.1246890190291
12	69	6.8	9.3014481119437
12	70	6.9	6.1272339967354
12	71	7	9.3496226877566
12	72	7.1	8.5304672898817
12	73	7.2	9.1242607840614
12	74	7.3	0.973
12	75	7.4	4.3577761273913
12	76	7.5	0.973
12	77	7.6	2.5720389208699
12	78	7.7	2.8766605061585
12	79	7.8	4.3165487169568
12	80	7.9	0.973
12	81	8	1.5897409358382
12	82	8.1	4.2992840120413
12	83	8.2	3.8192287130312
12	84	8.3	0.973
12	85	8.4	4.9896392768023
12	86	8.5	0.973
12	87	8.6	3.2116257252267
12	88	8.7	2.8822162993739
12	89	8.8	0.973
12	90	8.9	2.2705069044256
12	91	9	3.8308782287708
12	92	9.1	2.0735985700595
12	93	9.2	0.973
12	94	9.3	2.8376475775941
12	95	9.4	1.3397800903168
12	96	9.5	0.973
12	97	9.6	0.973
12	98	9.7	2.6721583083952
12	99	9.8	1.7699536569376
12	100	9.9	4.1362624045135
12	101	10	0.973
12	102	10.1	0.973
12	103	10.2	0.973
12	104	10.3	0.973
12	105	10.4	0.973
12	106	10.5	0.973
12	107	10.6	0.973
12	108	10.7	0.973
12	109	10.8	0.973
12	110	10.9	0.973
12	111	11	0.973
12	112	11.1	0.973
12	113	11.2	0.973
12	114	11.3	0.973
12	115	11.4	0.973
12	116	11.5	0.973
12	117	11.6	0.973
12	118	11.7	0.973
12	119	11.8	0.973
12	120	11.9	0.973
12	121	12	0.973
12	122	12.1	0.973
12	123	12.2	0.973
12	124	12.3	0.973
12	125	12.4	0.973
12	126	12.5	0.973
12	127	12.6	0.973
12	128	12.7	0.973
12	129	12.8	0.973
12	130	12.9	0.973
12	131	13	0.973
12	132	13.1	0.973
12	133	13.2	0.973
12	134	13.3	0.973
12	135	13.4	0.973
12	136	13.5	0.973
12	137	13.6	3.5735574093087
12	138	13.7	3.7500424838715
12	139	13.8	3.9266738352852
12	140	13.9	4.1034612054572
12	141	14	4.2804143362946
12	142	14.1	4.4575429697045
12	143	14.2	4.6348568475942
12	144	14.3	4.8123657118707
12	145	14.4	4.9900793044413
12	146	14.5	3.8570439909308
12	147	14.6	3.9658166612094
12	148	14.7	4.9321216693566
12	149	14.8	4.746637985347
12	150	14.9	4.5696051347275
12	151	15	5.2216510129458
12	152	15.1	4.4214073361883
12	153	15.2	4.2489042048499
12	154	15.3	5.4585271853975
12	155	15.4	4.6050085823935
12	156	15.5	4.8474587574368
12	157	15.6	4.5203652490089
12	158	15.7	5.9819080005712
12	159	15.8	5.6131830759796
12	160	15.9	6.5511640891088
12	161	16	7.0908903175858
12	162	16.1	6.7157379063457
12	163	16.2	7.3807846395105
12	164	16.3	5.6087545858803
12	165	16.4	7.7880890112275
12	166	16.5	5.7357624026778
12	167	16.6	6.2165560631356
12	168	16.7	7.5164231263597
12	169	16.8	6.7326702205247
12	170	16.9	6.0964562366966
12	171	17	7.981273887304
12	172	17.1	5.7457965389222
12	173	17.2	6.202061885998
12	174	17.3	7.5371876127656
12	175	17.4	7.6928493572579
12	176	17.5	7.7960277624751
12	177	17.6	6.4398105311437
12	178	17.7	8.0365249061328
12	179	17.8	6.0681766278845
12	180	17.9	6.9306994043177
12	181	18	9.3762185666796
12	182	18.1	7.3527644615935
12	183	18.2	6.7810181465907
12	184	18.3	9.82520242459
12	185	18.4	8.568514074897
12	186	18.5	9.4567343017326
12	187	18.6	3.772814371066
12	188	18.7	0.973
12	189	18.8	5.3680948288379
12	190	18.9	0.973
12	191	19	1.9796426442958
12	192	19.1	0.973
12	193	19.2	3.7649097958479
12	194	19.3	3.2342043860393
12	195	19.4	2.5370470023251
12	196	19.5	0.973
12	197	19.6	0.973
12	198	19.7	2.7858082982705
12	199	19.8	1.8806459786383
12	200	19.9	4.1892888634077
12	201	20	0.973
12	202	20.1	3.3273489879395
12	203	20.2	0.973
12	204	20.3	2.8083311032441
12	205	20.4	0.973
12	206	20.5	3.8701196018204
12	207	20.6	3.9055126662748
12	208	20.7	2.2167231120935
12	209	20.8	2.1267615853112
12	210	20.9	1.8745016987642
12	211	21	0.973
12	212	21.1	0.973
12	213	21.2	0.973
12	214	21.3	0.973
12	215	21.4	0.973
12	216	21.5	0.973
12	217	21.6	0.973
12	218	21.7	0.973
12	219	21.8	0.973
12	220	21.9	0.973
12	221	22	0.973
12	222	22.1	0.973
12	223	22.2	0.973
12	224	22.3	0.973
12	225	22.4	0.973
12	226	22.5	0.973
12	227	22.6	0.973
12	228	22.7	0.973
12	229	22.8	0.973
12	230	22.9	0.973
12	231	23	0.973
12	232	23.1	0.973
12	233	23.2	0.973
12	234	23.3	0.973
12	235	23.4	0.973
12	236	23.5	0.973
12	237	23.6	0.973
12	238	23.7	0.973
12	239	23.8	0.973
12	240	23.9	0.973
12	241	24	0.973
12	242	24.1	0.973
12	243	24.2	0.973
12	244	24.3	0.973
12	245	24.4	0.973
12	246	24.5	0.973
12	247	24.6	3.6240893109914
12	248	24.7	3.8006152845237
12	249	24.8	3.9772903250419
12	250	24.9	4.1541241744533
12	251	25	4.3311265746651
12	252	25.1	4.5083072675844
12	253	25.2	4.6856759951183
12	254	25.3	4.8632424991741
12	255	25.4	5.0410165216589
12	256	25.5	3.8859149192882
12	257	25.6	4.8522949201943
12	258	25.7	4.5889825125131
12	259	25.8	4.3613735727495
12	260	25.9	4.7665186718711
12	261	26	3.8863474238154
12	262	26.1	4.2288138443319
12	263	26.2	4.0547633818732
12	264	26.3	4.7855603242303
12	265	26.4	5.3447560740367
12	266	26.5	4.2105475839239
12	267	26.6	5.9521117542016
12	268	26.7	5.4794975640117
12	269	26.8	4.5562149503915
12	270	26.9	6.8150424461882
12	271	27	6.0671182779949
12	272	27.1	4.9167537301483
12	273	27.2	6.2074298318165
12	274	27.3	7.2191883226358
12	275	27.4	7.4029662412396
12	276	27.5	6.2315306477114
12	277	27.6	5.3135756322439
12	278	27.7	7.4083525223848
12	279	27.8	5.4366569957971
12	280	27.9	7.8819571607796
12	281	28	5.8637898573298
12	282	28.1	7.300168473967
12	283	28.2	7.1956609415836
12	284	28.3	8.2428881276577
12	285	28.4	8.2730115017943
12	286	28.5	8.6600607501145
12	287	28.6	6.3742753388212
12	288	28.7	6.7595762358298
12	289	28.8	7.4215966634988
12	290	28.9	6.7221375290765
12	291	29	7.1594565533866
12	292	29.1	7.0981869224596
12	293	29.2	6.6705148011106
12	294	29.3	7.2322677423476
12	295	29.4	8.6806146629715
12	296	29.5	7.2213268246598
12	297	29.6	9.704010775064
12	298	29.7	5.2051598044382
12	299	29.8	2.2527785912388
12	300	29.9	3.8779324726601
12	301	30	0.973
12	302	30.1	4.0563165424524
12	303	30.2	2.4974147815801
12	304	30.3	2.6234386093264
12	305	30.4	0.973
12	306	30.5	0.973
12	307	30.6	5.9481304986441
12	308	30.7	0.973
12	309	30.8	1.22943389264
12	310	30.9	1.2449607330017
12	311	31	2.306543854533
12	312	31.1	2.3682685624403
12	313	31.2	3.7272252321311
12	314	31.3	3.3504652801419
12	315	31.4	0.973
12	316	31.5	3.7946588212991
12	317	31.6	2.5978908169034
12	318	31.7	3.1205944417295
12	319	31.8	0.973
12	320	31.9	4.900131742039
12	321	32	1.5422295165011
12	322	32.1	0.973
12	323	32.2	4.7365360471292
12	324	32.3	1.2892134415373
12	325	32.4	2.4438162566846
12	326	32.5	2.081470272681
12	327	32.6	0.973
12	328	32.7	2.6073115496339
12	329	32.8	0.973
12	330	32.9	2.5080033727809
12	331	33	3.0691083272925
12	332	33.1	2.8069630944739
12	333	33.2	3.4228742932049
12	334	33.3	2.4229642860123
12	335	33.4	1.9481205210849
12	336	33.5	0.973
12	337	33.6	0.973
12	338	33.7	1.6137199384644
12	339	33.8	5.4581182051791
12	340	33.9	1.1724425509851
12	341	34	0.973
12	342	34.1	0.973
12	343	34.2	4.2901252969638
12	344	34.3	2.1807892580674
12	345	34.4	0.973
12	346	34.5	5.4500336096567
12	347	34.6	0.973
12	348	34.7	1.6077071836274
12	349	34.8	4.2164149685244
12	350	34.9	0.973
12	351	35	2.6324454217777
12	352	35.1	3.7361960928487
12	353	35.2	2.8030554132891
12	354	35.3	0.973
12	355	35.4	2.7287698073391
12	356	35.5	1.4507132293964
12	357	35.6	4.7738799021828
12	358	35.7	3.0331004570136
12	359	35.8	2.3799921965629
12	360	35.9	0.973
12	361	36	0.973
12	362	36.1	1.1439859085481
12	363	36.2	2.4422554546711
12	364	36.3	1.6221075207514
12	365	36.4	1.4580984178586
12	366	36.5	3.2543421532531
12	367	36.6	0.973
12	368	36.7	2.7624488986526
12	369	36.8	2.6693405788011
12	370	36.9	2.5239614729003
12	371	37	0.973
12	372	37.1	2.27340611427
12	373	37.2	3.8871342971372
12	374	37.3	0.973
12	375	37.4	0.973
12	376	37.5	5.5850668294176
12	377	37.6	0.973
12	378	37.7	5.3842168906133
12	379	37.8	0.973
12	380	37.9	3.5413747818586
12	381	38	0.973
12	382	38.1	1.6965337062786
12	383	38.2	1.9533337411185
12	384	38.3	3.3150421268234
12	385	38.4	1.3773243841751
12	386	38.5	1.6917259843089
12	387	38.6	4.5051012118678
12	388	38.7	1.0678052002357
12	389	38.8	0.973
12	390	38.9	6.1369874165672
12	391	39	0.973
12	392	39.1	0.973
12	393	39.2	2.6548912224364
12	394	39.3	2.2658802838798
12	395	39.4	2.0921093163573
12	396	39.5	1.796956524847
12	397	39.6	0.973
12	398	39.7	1.9185893990171
12	399	39.8	3.1984403677914
12	400	39.9	1.8499864723631
12	401	40	1.7454590802006
12	402	40.1	4.0225528450589
12	403	40.2	1.6959078639418
12	404	40.3	0.973
12	405	40.4	4.9582513850192
12	406	40.5	0.973
12	407	40.6	3.0350899324897
12	408	40.7	2.8943142928736
12	409	40.8	3.9506625639666
12	410	40.9	0.973
12	411	41	2.7376558250438
12	412	41.1	0.973
12	413	41.2	4.0043333622608
12	414	41.3	0.973
12	415	41.4	4.9733704029949
12	416	41.5	2.1813089541052
12	417	41.6	0.973
12	418	41.7	3.8902297432169
12	419	41.8	0.973
12	420	41.9	2.3685248484644
12	421	42	3.9751414886821
12	422	42.1	2.5093000406688
12	423	42.2	1.9087092704988
12	424	42.3	3.6189241179591
12	425	42.4	0.973
12	426	42.5	3.1098121407064
12	427	42.6	1.2333522427086
12	428	42.7	5.0193728680429
12	429	42.8	0.973
12	430	42.9	4.9801829360184
12	431	43	2.1773333598691
12	432	43.1	0.973
12	433	43.2	3.5404868801285
12	434	43.3	2.2144952700524
12	435	43.4	0.973
12	436	43.5	3.24388851274
12	437	43.6	3.0581384960765
12	438	43.7	0.973
12	439	43.8	0.973
12	440	43.9	4.3197355211678
12	441	44	2.7958508098999
12	442	44.1	0.973
12	443	44.2	5.7462887762617
12	444	44.3	0.973
12	445	44.4	2.2978526666702
12	446	44.5	2.2932614987354
12	447	44.6	1.658011434511
12	448	44.7	2.5082841733534
12	449	44.8	4.2281066850446
12	450	44.9	0.973
12	451	45	5.6133701139905
12	452	45.1	0.973
12	453	45.2	2.4544940059293
12	454	45.3	4.383015059167
12	455	45.4	1.5724180828082
12	456	45.5	1.4084601074193
12	457	45.6	2.266061409518
12	458	45.7	0.973
12	459	45.8	3.494183735157
12	460	45.9	3.6312647670041
12	461	46	0.973
12	462	46.1	3.6711118025107
12	463	46.2	2.5343539857339
12	464	46.3	1.4932010189952
12	465	46.4	1.4204079460879
12	466	46.5	0.973
12	467	46.6	2.106712298226
12	468	46.7	2.6709084783766
12	469	46.8	0.973
12	470	46.9	1.7703134654825
12	471	47	2.0333999139546
12	472	47.1	1.7847760751074
12	473	47.2	4.5869233420853
12	474	47.3	2.1284129429604
12	475	47.4	0.973
12	476	47.5	3.3169827103074
12	477	47.6	3.7054289316798
12	478	47.7	0.973
12	479	47.8	4.1111862526977
12	480	47.9	2.4609688832806
12	481	48	0.973
12	482	48.1	1.421799908603
12	483	48.2	1.92229151649
12	484	48.3	4.4017194755139
12	485	48.4	2.3057523238571
12	486	48.5	0.973
12	487	48.6	1.8174218518474
12	488	48.7	1.827269014614
12	489	48.8	3.2636555772798
12	490	48.9	3.0328990953178
12	491	49	2.7859241757133
12	492	49.1	1.2144675293184
12	493	49.2	0.973
12	494	49.3	3.7465467917023
12	495	49.4	2.0215805429876
12	496	49.5	0.973
12	497	49.6	2.3900994006646
12	498	49.7	3.299447007438
12	499	49.8	4.3210746852506
12	500	49.9	0.973
12	501	50	5.5880910405393
12	502	50.1	0.973
12	503	50.2	6.015561875196
12	504	50.3	0.973
12	505	50.4	5.9529299016053
12	506	50.5	0.973
12	507	50.6	4.3433833050565
12	508	50.7	3.4442241133512
12	509	50.8	0.973
12	510	50.9	4.4245147870342
12	511	51	2.2071006227385
12	512	51.1	0.973
12	513	51.2	3.1140840332376
12	514	51.3	0.973
12	515	51.4	3.6660612321498
12	516	51.5	1.9325547710477
12	517	51.6	0.973
12	518	51.7	1.1451699528702
12	519	51.8	2.2830657540132
12	520	51.9	4.2020825980685
12	521	52	2.1248694542073
12	522	52.1	1.5754992792468
12	523	52.2	0.973
12	524	52.3	3.2749054517548
12	525	52.4	3.7490415030168
12	526	52.5	0.973
12	527	52.6	3.0416260637878
12	528	52.7	0.973
12	529	52.8	5.3610566173212
12	530	52.9	1.3211188801505
12	531	53	3.2957531074489
12	532	53.1	0.973
12	533	53.2	3.9838381018678
12	534	53.3	0.973
12	535	53.4	3.1209487771397
12	536	53.5	0.973
12	537	53.6	3.1951076962362
12	538	53.7	2.33827807834
12	539	53.8	1.5104266336491
12	540	53.9	3.8008846687367
12	541	54	0.973
12	542	54.1	3.2621714254604
12	543	54.2	4.0973290697499
12	544	54.3	0.973
12	545	54.4	1.3901069584679
12	546	54.5	2.0969007359394
12	547	54.6	3.4059964178531
12	548	54.7	0.973
12	549	54.8	5.647000296098
12	550	54.9	0.973
12	551	55	0.973
12	552	55.1	3.4518604598357
12	553	55.2	3.067170809538
12	554	55.3	3.3483410886967
12	555	55.4	0.973
12	556	55.5	2.6265145570326
12	557	55.6	2.2432074805498
12	558	55.7	1.8899578245337
12	559	55.8	3.4670986202153
12	560	55.9	1.1482189910082
12	561	56	0.973
12	562	56.1	1.3536018018715
12	563	56.2	2.1315825350981
12	564	56.3	4.2914430743723
12	565	56.4	0.973
12	566	56.5	5.7052286571814
12	567	56.6	0.973
11	4	0.3	2.4479752470855
11	5	0.4	2.3290637582572
11	6	0.5	2.1818481258762
11	7	0.6	2.2357036410334
11	8	0.7	1.9855717337837
11	9	0.8	2.1556800054752
11	10	0.9	1.8177961522857
11	11	1	2.1703654659723
11	12	1.1	1.8999668675033
11	13	1.2	1.8135391334582
11	14	1.3	2.1003037793096
11	15	1.4	2.0311366270296
11	16	1.5	2.213205013168
11	17	1.6	1.4406950977165
11	18	1.7	2.5262731315568
11	19	1.8	1.3472384067252
11	20	1.9	2.2455468171276
11	21	2	2.1015260222834
11	22	2.1	1.979035354848
11	23	2.2	1.5707574565429
11	24	2.3	1.5441806555958
11	25	2.4	1.9124366020085
11	26	2.5	1.9760296771768
11	27	2.6	1.861542067118
11	28	2.7	2.0893797688885
11	29	2.8	1.3967243768042
11	30	2.9	1.5130976005224
11	31	3	2.5076531236758
11	32	3.1	2.16138498988
11	33	3.2	2.4867319139419
11	34	3.3	2.5737160811434
11	35	3.4	1.5175942043075
11	36	3.5	1.5883962160442
11	37	3.6	1.4689842111664
11	38	3.7	1.3277961542364
11	39	3.8	1.5610938670114
11	40	3.9	2.0000768283615
11	41	4	1.5853120716521
11	42	4.1	2.4462432491127
11	43	4.2	1.7681026779115
11	44	4.3	2.413640728849
11	45	4.4	1.3719304058002
11	46	4.5	1.9215971733676
11	47	4.6	2.0609394765459
11	48	4.7	2.2560777051607
11	49	4.8	1.5934962075436
11	50	4.9	2.0070045632543
11	51	5	1.8610358671751
11	52	5.1	2.5755732625723
11	53	5.2	1.7970738488948
11	54	5.3	1.8042755607981
11	55	5.4	1.7979858017527
11	56	5.5	1.3731275021331
11	57	5.6	1.7136336127995
11	58	5.7	2.1326397273224
11	59	5.8	2.0318584615365
11	60	5.9	1.6930794459535
11	61	6	2.5217068935512
11	62	6.1	1.7332032753387
11	63	6.2	1.7281707641901
11	64	6.3	2.1344021787401
11	65	6.4	2.1899431454483
11	66	6.5	2.1774386041798
11	67	6.6	2.0298180325888
11	68	6.7	1.3533659499604
11	69	6.8	2.3284602138447
11	70	6.9	1.3061105647124
11	71	7	2.2707209182903
11	72	7.1	1.9828932433389
11	73	7.2	2.1237779836318
11	74	7.3	-0.67051755650901
11	75	7.4	0.69754018457607
11	76	7.5	-1.0548045324627
11	77	7.6	0.16715116663836
11	78	7.7	0.25759127894418
11	79	7.8	0.68477199978661
11	80	7.9	-1.0167235876667
11	81	8	-0.12813790892251
11	82	8.1	0.68328243996948
11	83	8.2	0.53556285242085
11	84	8.3	-1.2225186239695
11	85	8.4	0.88848049053922
11	86	8.5	-0.51027728305197
11	87	8.6	0.35671765725128
11	88	8.7	0.25667311176656
11	89	8.8	-0.45471310988068
11	90	8.9	0.074922233750119
11	91	9	0.53953699145932
11	92	9.1	0.014076425158418
11	93	9.2	-0.306093408796
11	94	9.3	0.2428024208173
11	95	9.4	-0.20489069765899
11	96	9.5	-0.38623889465816
11	97	9.6	-0.31515522389672
11	98	9.7	0.1964605357265
11	99	9.8	-0.074590725474994
11	100	9.9	0.63237314489671
11	101	10	-3.7140856953146
11	102	10.1	-2.9621553461115
11	103	10.2	-3.7178356585583
11	104	10.3	-3.7177556634409
11	105	10.4	-3.5125273090237
11	106	10.5	-3.4331098520423
11	107	10.6	-3.3109522588677
11	108	10.7	-3.0716847170398
11	109	10.8	-3.5687991781258
11	110	10.9	-2.5431661972141
11	111	11	-2.6910954925232
11	112	11.1	-4.0311948625099
11	113	11.2	-3.1110581454228
11	114	11.3	-2.49591556567
11	115	11.4	-3.6622133962449
11	116	11.5	-3.0757743640984
11	117	11.6	-3.1280177515175
11	118	11.7	-3.2863787560456
11	119	11.8	-2.347147176928
11	120	11.9	-3.4019422405471
11	121	12	-1.9204662744008
11	122	12.1	-3.6730069372524
11	123	12.2	-2.0395810378463
11	124	12.3	-3.2232254993577
11	125	12.4	-3.1520001716355
11	126	12.5	-1.6885349946361
11	127	12.6	-3.3654656086344
11	128	12.7	-1.6873615517547
11	129	12.8	-3.5726926190638
11	130	12.9	-2.5341890137759
11	131	13	-1.7968513860919
11	132	13.1	-1.888760944261
11	133	13.2	-2.3341686997751
11	134	13.3	-2.7334543021512
11	135	13.4	-1.5447099117149
11	136	13.5	-2.7997778972337
11	137	13.6	2.6
11	138	13.7	2.6
11	139	13.8	2.6
11	140	13.9	2.6
11	141	14	2.6
11	142	14.1	2.6
11	143	14.2	2.6
11	144	14.3	2.6
11	145	14.4	2.6
11	146	14.5	1.7197939507896
11	147	14.6	1.7379983353661
11	148	14.7	2.3020148800686
11	149	14.8	2.10149694141
11	150	14.9	1.9243754500989
11	151	15	2.2443953567417
11	152	15.1	1.7161567086354
11	153	15.2	1.5746387521736
11	154	15.3	2.1921998833306
11	155	15.4	1.6749410319608
11	156	15.5	1.7598562344676
11	157	15.6	1.5501456555212
11	158	15.7	2.2400381221902
11	159	15.8	1.9979047445813
11	160	15.9	2.385553467134
11	161	16	2.5604111445136
11	162	16.1	2.317314357264
11	163	16.2	2.5407009731513
11	164	16.3	1.7195577013073
11	165	16.4	2.5879879088374
11	166	16.5	1.6854567790404
11	167	16.6	1.8454187302152
11	168	16.7	2.3160762974527
11	169	16.8	1.9600512881996
11	170	16.9	1.6788874064805
11	171	17	2.3473551146453
11	172	17.1	1.4789972851286
11	173	17.2	1.620359514025
11	174	17.3	2.0663602160523
11	175	17.4	2.0785279560834
11	176	17.5	2.0720433662646
11	177	17.6	1.5744653938105
11	178	17.7	2.0806514079915
11	179	17.8	1.3959231875138
11	180	17.9	1.6567273215158
11	181	18	2.4089693658985
11	182	18.1	1.7263378561707
11	183	18.2	1.521517085121
11	184	18.3	2.4290723654441
11	185	18.4	2.0039310801541
11	186	18.5	2.2314254969824
11	187	18.6	0.52210936993292
11	188	18.7	-0.89833975047803
11	189	18.8	0.99803519956767
11	190	18.9	-0.58521801659372
11	191	19	-0.012535154609932
11	192	19.1	-0.63691555019469
11	193	19.2	0.52390509280377
11	194	19.3	0.36248333160765
11	195	19.4	0.15304383605253
11	196	19.5	-0.38615376171656
11	197	19.6	-0.5462854103418
11	198	19.7	0.23076158596668
11	199	19.8	-0.0413078714395
11	200	19.9	0.64809142716696
11	201	20	-0.2916653731838
11	202	20.1	0.3894685378531
11	203	20.2	-0.61264601892326
11	204	20.3	0.23597618204077
11	205	20.4	-0.66508574860636
11	206	20.5	0.55527360129636
11	207	20.6	0.56190453257877
11	208	20.7	0.056743824551813
11	209	20.8	0.029758613766173
11	210	20.9	-0.045499333390033
11	211	21	-2.7634793301823
11	212	21.1	-3.2374440682944
11	213	21.2	-2.8208683987602
11	214	21.3	-3.2938366096372
11	215	21.4	-4.1794714069371
11	216	21.5	-3.0411359652877
11	217	21.6	-3.315103514273
11	218	21.7	-2.8393574132283
11	219	21.8	-4.5
11	220	21.9	-3.27163484018
11	221	22	-2.2122914770905
11	222	22.1	-3.741909178815
11	223	22.2	-3.2307688232421
11	224	22.3	-3.3881290716212
11	225	22.4	-2.2094245345645
11	226	22.5	-2.8644476403563
11	227	22.6	-3.9422161711347
11	228	22.7	-2.9816774656138
11	229	22.8	-2.1557496345826
11	230	22.9	-3.1808342019168
11	231	23	-2.9278956376099
11	232	23.1	-3.4320834564641
11	233	23.2	-2.6662531300525
11	234	23.3	-2.0256152636992
11	235	23.4	-3.1260997832692
11	236	23.5	-3.1430062480702
11	237	23.6	-2.836423415425
11	238	23.7	-2.3024484573134
11	239	23.8	-2.8027623651804
11	240	23.9	-1.6617121292429
11	241	24	-2.888638772085
11	242	24.1	-2.3643797338033
11	243	24.2	-2.1115695827294
11	244	24.3	-2.3327380171253
11	245	24.4	-1.8518099468129
11	246	24.5	-2.5840694978436
11	247	24.6	2.6
11	248	24.7	2.6
11	249	24.8	2.6
11	250	24.9	2.6
11	251	25	2.6
11	252	25.1	2.6
11	253	25.2	2.6
11	254	25.3	2.6
11	255	25.4	2.6
11	256	25.5	1.7155467273435
11	257	25.6	2.2900627422147
11	258	25.7	2.0386795956176
11	259	25.8	1.8316650338005
11	260	25.9	2.0174143206328
11	261	26	1.4432682489278
11	262	26.1	1.6051482347073
11	263	26.2	1.4675926590804
11	264	26.3	1.8333968688501
11	265	26.4	2.0802578022238
11	266	26.5	1.4316125426907
11	267	26.6	2.2859758479754
11	268	26.7	1.9848529339535
11	269	26.8	1.4857376064174
11	270	26.9	2.5234686303418
11	271	27	2.1041837031953
11	272	27.1	1.5308712441474
11	273	27.2	2.0734537062934
11	274	27.3	2.4572802008828
11	275	27.4	2.4657123983372
11	276	27.5	1.918560988293
11	277	27.6	1.5043900797376
11	278	27.7	2.3121846189955
11	279	27.8	1.4868409618968
11	280	27.9	2.4006204547361
11	281	28	1.5840765192406
11	282	28.1	2.0896605831338
11	283	28.2	2.0073320310563
11	284	28.3	2.3393291867804
11	285	28.4	2.2969988192664
11	286	28.5	2.3788704673527
11	287	28.6	1.5565002210438
11	288	28.7	1.6611607753905
11	289	28.8	1.852223792905
11	290	28.9	1.5929114827653
11	291	29	1.7088794027455
11	292	29.1	1.6621408590581
11	293	29.2	1.5024945496814
11	294	29.3	1.655058645457
11	295	29.4	2.0710014853626
11	296	29.5	1.5960547496099
11	297	29.6	2.3081929820357
11	298	29.7	0.9474249777994
11	299	29.8	0.066385293938218
11	300	29.9	0.54718062318861
11	301	30	-0.64096945989876
11	302	30.1	0.60046275383792
11	303	30.2	0.13674247770105
11	304	30.3	0.1734067134792
11	305	30.4	-0.51005857477431
11	306	30.5	-0.62188202021643
11	307	30.6	1.1587251393357
11	308	30.7	-0.6564675513655
11	309	30.8	-0.23870302438736
11	310	30.9	-0.23375444938429
11	311	31	0.083152484428144
11	312	31.1	0.10120394909753
11	313	31.2	0.503377842973
11	314	31.3	0.38908476706128
11	315	31.4	-1.068020263291
11	316	31.5	0.5244778708089
11	317	31.6	0.16753136701883
11	318	31.7	0.32121835686265
11	319	31.8	-0.87097587964962
11	320	31.9	0.84927099065389
11	321	32	-0.14662893766072
11	322	32.1	-0.70171850174665
11	323	32.2	0.80115069414022
11	324	32.3	-0.22159283468499
11	325	32.4	0.1211302783573
11	326	32.5	0.013476923550488
11	327	32.6	-0.54027746831999
11	328	32.7	0.17120088331867
11	329	32.8	-0.58234782780055
11	330	32.9	0.14341600541957
11	331	33	0.30937836430967
11	332	33.1	0.23017348933498
11	333	33.2	0.41096204251517
11	334	33.3	0.11389647875912
11	335	33.4	-0.026776560861617
11	336	33.5	-0.55385535224341
11	337	33.6	-0.38549744074698
11	338	33.7	-0.12363668896723
11	339	33.8	1.014327812288
11	340	33.9	-0.25637328862214
11	341	34	-0.60091237656305
11	342	34.1	-0.3141609418206
11	343	34.2	0.67184898669366
11	344	34.3	0.043890733830629
11	345	34.4	-0.71094370887149
11	346	34.5	1.0135047510499
11	347	34.6	-0.43521425384098
11	348	34.7	-0.12607293808832
11	349	34.8	0.64659352095331
11	350	34.9	-1.1008108439855
11	351	35	0.18058080070185
11	352	35.1	0.50685786020477
11	353	35.2	0.22809278792701