version 2
run high-0-20160707-11:15:47-28255
attr configname high
attr datetime 20160707-11:15:47
attr experiment high
attr inifile omnetpp.ini
attr iterationvars ""
attr iterationvars2 $repetition=0
attr measurement ""
attr network RSUExampleScenario
attr processid 28255
attr repetition 0
attr replication #0
attr resultdir results
attr runnumber 0
attr seedset 0

vector 8  RSUExampleScenario.node[0].veinsmobility  posx  ETV
vector 9  RSUExampleScenario.node[0].veinsmobility  posy  ETV
vector 10  RSUExampleScenario.node[0].veinsmobility  speed  ETV
vector 11  RSUExampleScenario.node[0].veinsmobility  acceleration  ETV
vector 12  RSUExampleScenario.node[0].veinsmobility  co2emission  ETV
vector 5  RSUExampleScenario.node[0].appl  #Neighbours  ETV
vector 17  RSUExampleScenario.node[1].veinsmobility  posx  ETV
vector 18  RSUExampleScenario.node[1].veinsmobility  posy  ETV
vector 19  RSUExampleScenario.node[1].veinsmobility  speed  ETV
vector 20  RSUExampleScenario.node[1].veinsmobility  acceleration  ETV
vector 21  RSUExampleScenario.node[1].veinsmobility  co2emission  ETV
vector 14  RSUExampleScenario.node[1].appl  #Neighbours  ETV
vector 26  RSUExampleScenario.node[2].veinsmobility  posx  ETV
vector 27  RSUExampleScenario.node[2].veinsmobility  posy  ETV
vector 28  RSUExampleScenario.node[2].veinsmobility  speed  ETV
vector 29  RSUExampleScenario.node[2].veinsmobility  acceleration  ETV
vector 30  RSUExampleScenario.node[2].veinsmobility  co2emission  ETV
vector 23  RSUExampleScenario.node[2].appl  #Neighbours  ETV
vector 35  RSUExampleScenario.node[3].veinsmobility  posx  ETV
vector 36  RSUExampleScenario.node[3].veinsmobility  posy  ETV
vector 37  RSUExampleScenario.node[3].veinsmobility  speed  ETV
vector 38  RSUExampleScenario.node[3].veinsmobility  acceleration  ETV
vector 39  RSUExampleScenario.node[3].veinsmobility  co2emission  ETV
vector 32  RSUExampleScenario.node[3].appl  #Neighbours  ETV
vector 44  RSUExampleScenario.node[4].veinsmobility  posx  ETV
vector 45  RSUExampleScenario.node[4].veinsmobility  posy  ETV
vector 46  RSUExampleScenario.node[4].veinsmobility  speed  ETV
vector 47  RSUExampleScenario.node[4].veinsmobility  acceleration  ETV
vector 48  RSUExampleScenario.node[4].veinsmobility  co2emission  ETV
vector 41  RSUExampleScenario.node[4].appl  #Neighbours  ETV
vector 53  RSUExampleScenario.node[5].veinsmobility  posx  ETV
vector 54  RSUExampleScenario.node[5].veinsmobility  posy  ETV
vector 55  RSUExampleScenario.node[5].veinsmobility  speed  ETV
vector 56  RSUExampleScenario.node[5].veinsmobility  acceleration  ETV
vector 57  RSUExampleScenario.node[5].veinsmobility  co2emission  ETV
vector 50  RSUExampleScenario.node[5].appl  #Neighbours  ETV
vector 62  RSUExampleScenario.node[6].veinsmobility  posx  ETV
vector 63  RSUExampleScenario.node[6].veinsmobility  posy  ETV
vector 64  RSUExampleScenario.node[6].veinsmobility  speed  ETV
vector 59  RSUExampleScenario.node[6].appl  #Neighbours  ETV
vector 65  RSUExampleScenario.node[6].veinsmobility  acceleration  ETV
vector 66  RSUExampleScenario.node[6].veinsmobility  co2emission  ETV
vector 71  RSUExampleScenario.node[7].veinsmobility  posx  ETV
vector 72  RSUExampleScenario.node[7].veinsmobility  posy  ETV
vector 73  RSUExampleScenario.node[7].veinsmobility  speed  ETV
vector 74  RSUExampleScenario.node[7].veinsmobility  acceleration  ETV
vector 75  RSUExampleScenario.node[7].veinsmobility  co2emission  ETV
vector 68  RSUExampleScenario.node[7].appl  #Neighbours  ETV
vector 80  RSUExampleScenario.node[8].veinsmobility  posx  ETV
vector 81  RSUExampleScenario.node[8].veinsmobility  posy  ETV
vector 82  RSUExampleScenario.node[8].veinsmobility  speed  ETV
vector 83  RSUExampleScenario.node[8].veinsmobility  acceleration  ETV
vector 84  RSUExampleScenario.node[8].veinsmobility  co2emission  ETV
vector 77  RSUExampleScenario.node[8].appl  #Neighbours  ETV
vector 89  RSUExampleScenario.node[9].veinsmobility  posx  ETV
vector 90  RSUExampleScenario.node[9].veinsmobility  posy  ETV
vector 91  RSUExampleScenario.node[9].veinsmobility  speed  ETV
vector 86  RSUExampleScenario.node[9].appl  #Neighbours  ETV
vector 92  RSUExampleScenario.node[9].veinsmobility  acceleration  ETV
vector 93  RSUExampleScenario.node[9].veinsmobility  co2emission  ETV
vector 98  RSUExampleScenario.node[10].veinsmobility  posx  ETV
vector 99  RSUExampleScenario.node[10].veinsmobility  posy  ETV
vector 100  RSUExampleScenario.node[10].veinsmobility  speed  ETV
vector 101  RSUExampleScenario.node[10].veinsmobility  acceleration  ETV
vector 102  RSUExampleScenario.node[10].veinsmobility  co2emission  ETV
vector 95  RSUExampleScenario.node[10].appl  #Neighbours  ETV
vector 107  RSUExampleScenario.node[11].veinsmobility  posx  ETV
vector 108  RSUExampleScenario.node[11].veinsmobility  posy  ETV
vector 109  RSUExampleScenario.node[11].veinsmobility  speed  ETV
vector 110  RSUExampleScenario.node[11].veinsmobility  acceleration  ETV
vector 111  RSUExampleScenario.node[11].veinsmobility  co2emission  ETV
vector 104  RSUExampleScenario.node[11].appl  #Neighbours  ETV
vector 116  RSUExampleScenario.node[12].veinsmobility  posx  ETV
vector 117  RSUExampleScenario.node[12].veinsmobility  posy  ETV
vector 113  RSUExampleScenario.node[12].appl  #Neighbours  ETV
vector 118  RSUExampleScenario.node[12].veinsmobility  speed  ETV
vector 119  RSUExampleScenario.node[12].veinsmobility  acceleration  ETV
vector 120  RSUExampleScenario.node[12].veinsmobility  co2emission  ETV
vector 125  RSUExampleScenario.node[13].veinsmobility  posx  ETV
vector 126  RSUExampleScenario.node[13].veinsmobility  posy  ETV
vector 127  RSUExampleScenario.node[13].veinsmobility  speed  ETV
vector 128  RSUExampleScenario.node[13].veinsmobility  acceleration  ETV
vector 129  RSUExampleScenario.node[13].veinsmobility  co2emission  ETV
vector 122  RSUExampleScenario.node[13].appl  #Neighbours  ETV
vector 134  RSUExampleScenario.node[14].veinsmobility  posx  ETV
vector 135  RSUExampleScenario.node[14].veinsmobility  posy  ETV
vector 136  RSUExampleScenario.node[14].veinsmobility  speed  ETV
vector 137  RSUExampleScenario.node[14].veinsmobility  acceleration  ETV
vector 138  RSUExampleScenario.node[14].veinsmobility  co2emission  ETV
vector 131  RSUExampleScenario.node[14].appl  #Neighbours  ETV
vector 143  RSUExampleScenario.node[15].veinsmobility  posx  ETV
vector 144  RSUExampleScenario.node[15].veinsmobility  posy  ETV
vector 145  RSUExampleScenario.node[15].veinsmobility  speed  ETV
vector 146  RSUExampleScenario.node[15].veinsmobility  acceleration  ETV
vector 147  RSUExampleScenario.node[15].veinsmobility  co2emission  ETV
vector 140  RSUExampleScenario.node[15].appl  #Neighbours  ETV
vector 152  RSUExampleScenario.node[16].veinsmobility  posx  ETV
vector 153  RSUExampleScenario.node[16].veinsmobility  posy  ETV
vector 154  RSUExampleScenario.node[16].veinsmobility  speed  ETV
vector 155  RSUExampleScenario.node[16].veinsmobility  acceleration  ETV
vector 156  RSUExampleScenario.node[16].veinsmobility  co2emission  ETV
vector 149  RSUExampleScenario.node[16].appl  #Neighbours  ETV
vector 161  RSUExampleScenario.node[17].veinsmobility  posx  ETV
vector 162  RSUExampleScenario.node[17].veinsmobility  posy  ETV
vector 163  RSUExampleScenario.node[17].veinsmobility  speed  ETV
vector 164  RSUExampleScenario.node[17].veinsmobility  acceleration  ETV
vector 165  RSUExampleScenario.node[17].veinsmobility  co2emission  ETV
vector 158  RSUExampleScenario.node[17].appl  #Neighbours  ETV
vector 170  RSUExampleScenario.node[18].veinsmobility  posx  ETV
vector 171  RSUExampleScenario.node[18].veinsmobility  posy  ETV
vector 172  RSUExampleScenario.node[18].veinsmobility  speed  ETV
vector 173  RSUExampleScenario.node[18].veinsmobility  acceleration  ETV
vector 174  RSUExampleScenario.node[18].veinsmobility  co2emission  ETV
vector 167  RSUExampleScenario.node[18].appl  #Neighbours  ETV
vector 179  RSUExampleScenario.node[19].veinsmobility  posx  ETV
vector 180  RSUExampleScenario.node[19].veinsmobility  posy  ETV
vector 181  RSUExampleScenario.node[19].veinsmobility  speed  ETV
vector 182  RSUExampleScenario.node[19].veinsmobility  acceleration  ETV
vector 183  RSUExampleScenario.node[19].veinsmobility  co2emission  ETV
vector 176  RSUExampleScenario.node[19].appl  #Neighbours  ETV
vector 188  RSUExampleScenario.node[20].veinsmobility  posx  ETV
vector 189  RSUExampleScenario.node[20].veinsmobility  posy  ETV
vector 190  RSUExampleScenario.node[20].veinsmobility  speed  ETV
vector 191  RSUExampleScenario.node[20].veinsmobility  acceleration  ETV
vector 192  RSUExampleScenario.node[20].veinsmobility  co2emission  ETV
vector 185  RSUExampleScenario.node[20].appl  #Neighbours  ETV
vector 197  RSUExampleScenario.node[21].veinsmobility  posx  ETV
vector 198  RSUExampleScenario.node[21].veinsmobility  posy  ETV
5	8	0.622441588691	0
5	27	1.622441588691	0
5	64	2.622441588691	0
5	110	3.622441588691	0
5	165	4.622441588691	0
5	235	5.622441588691	0
5	314	6.622441588691	0
5	393	7.622441588691	0
5	481	8.622441588691	0
5	587	9.622441588691	0
5	693	10.622441588691	0
5	821	11.622441588691	0
5	962	12.622441588691	0
5	1103	13.622441588691	0
5	1262	14.622441588691	0
5	1421	15.622441588691	0
5	1618	16.622441588691	0
5	1824	17.622441588691	0
5	2022	18.622441588691	0
5	2244	19.622441588691	0
5	2481	20.622441588691	0
12	4	0.3	1.4276208928798
12	5	0.4	1.5553504369406
12	6	0.5	1.6547258140606
12	7	0.6	1.7983555805977
12	17	0.7	1.8323674505787
12	18	0.8	2.0110897446338
12	19	0.9	1.970451684244
12	20	1	2.244901373431
12	21	1.1	2.2119208452933
12	22	1.2	2.2548819012347
12	23	1.3	2.4880286867304
12	24	1.4	2.1810368271913
12	25	1.5	2.1706675736838
12	26	1.6	2.8037419185262
12	36	1.7	2.4812343986551
12	37	1.8	2.8431580702709
12	38	1.9	2.8946152347869
12	48	2	2.5474966159788
12	49	2.1	3.7088970722115
12	50	2.2	3.8510462994165
12	51	2.3	3.5989625620784
12	52	2.4	3.0988335173053
12	53	2.5	3.0265114982087
12	63	2.6	3.1991133878905
12	73	2.7	3.7263691316812
12	74	2.8	4.5254390972651
12	75	2.9	3.8428612412377
12	85	3	3.2691366136242
12	86	3.1	4.9153814359245
12	87	3.2	4.7578891135086
12	88	3.3	4.4990475055052
12	89	3.4	5.5413099122443
12	99	3.5	4.4066933049192
12	109	3.6	3.7575804710647
12	119	3.7	5.1438436894736
12	120	3.8	4.4697194033556
12	121	3.9	4.6235330915684
12	131	4	5.8353474738441
12	132	4.1	5.7120644357111
12	133	4.2	5.1762188799778
12	134	4.3	3.7195944711682
12	135	4.4	3.6402522151063
12	145	4.5	0.973
12	164	4.6	2.2287255963448
12	174	4.7	0.973
12	175	4.8	1.42831474416
12	176	4.9	0.973
12	186	5	0.973
12	187	5.1	3.9656067351801
12	188	5.2	1.6079967663902
12	189	5.3	0.973
12	190	5.4	1.2553256746396
12	200	5.5	0.973
12	219	5.6	2.7961483326865
12	244	5.7	0.973
12	245	5.8	0.973
12	246	5.9	1.8957909004172
12	256	6	3.0835034052003
12	257	6.1	0.973
12	258	6.2	1.9715146223431
12	268	6.3	0.973
12	269	6.4	2.0549224471391
12	279	6.5	1.6214069537342
12	298	6.6	1.5150536927911
12	323	6.7	2.764596012115
12	324	6.8	2.1164538775269
12	325	6.9	0.973
12	335	7	1.783889000143
12	336	7.1	2.2552772736225
12	337	7.2	0.973
12	347	7.3	1.7910235627292
12	348	7.4	1.7962923947838
12	358	7.5	3.000106108813
12	377	7.6	0.973
12	402	7.7	1.8428054548186
12	403	7.8	0.973
12	404	7.9	2.1923368450221
12	414	8	2.9423378932557
12	424	8.1	0.973
12	425	8.2	2.0340577718319
12	435	8.3	1.2963283308256
12	436	8.4	1.4464586582001
12	446	8.5	0.973
12	465	8.6	2.8985400724583
12	490	8.7	0.973
12	491	8.8	1.9861377008371
12	492	8.9	1.5552375266818
12	502	9	1.9155842870811
12	521	9.1	2.4002666383573
12	522	9.2	0.973
12	541	9.3	1.9323991312726
12	542	9.4	0.973
12	552	9.5	1.5157904540369
12	571	9.6	2.2968206295839
12	596	9.7	0.973
12	597	9.8	1.4885965602278
12	598	9.9	1.7452083292507
12	608	10	0.973
12	627	10.1	2.0656127097124
12	628	10.2	0.973
12	647	10.3	3.5072238800205
12	648	10.4	0.973
12	658	10.5	2.0315774196811
12	677	10.6	0.973
12	702	10.7	3.3057410399418
12	703	10.8	2.3228913338962
12	704	10.9	0.973
12	714	11	2.9664573806994
12	742	11.1	0.973
12	743	11.2	0.973
12	762	11.3	2.6380114273373
12	763	11.4	2.42339042527
12	786	11.5	0.973
12	805	11.6	2.2771881379134
12	830	11.7	0.973
12	831	11.8	2.8713702962136
12	832	11.9	0.973
12	842	12	1.6766212319873
12	870	12.1	0.973
12	882	12.2	2.7572377223444
12	901	12.3	2.6897542102824
12	902	12.4	1.3671533302597
12	927	12.5	0.973
12	946	12.6	1.3997775145433
12	971	12.7	0.973
12	972	12.8	1.4435573365648
12	973	12.9	2.5929219583834
12	983	13	0.973
12	1011	13.1	2.7111537651795
12	1023	13.2	1.3318142136589
12	1042	13.3	0.973
12	1043	13.4	1.8831364159789
12	1068	13.5	2.6670746468713
12	1087	13.6	0.973
12	1112	13.7	1.8739010771862
12	1113	13.8	0.973
12	1123	13.9	1.3535281121038
12	1133	14	3.0671502381498
12	1161	14.1	1.8594703858026
12	1173	14.2	0.973
12	1192	14.3	2.469450459842
12	1202	14.4	0.973
12	1227	14.5	1.8761761975963
12	1246	14.6	0.973
12	1271	14.7	2.4000409897918
12	1272	14.8	2.59682098926
12	1282	14.9	0.973
12	1292	15	2.7893669928939
12	1320	15.1	1.8994736578142
12	1332	15.2	1.5920280097044
12	1351	15.3	0.973
12	1361	15.4	2.9244077285612
12	1386	15.5	0.973
12	1405	15.6	1.778629770391
12	1430	15.7	2.270701220768
12	1440	15.8	2.8830806002348
12	1450	15.9	0.973
12	1466	16	2.6621270477686
12	1500	16.1	0.973
12	1512	16.2	1.3304219007639
12	1531	16.3	0.973
12	1550	16.4	1.8072951695215
12	1583	16.5	3.4014185905045
12	1602	16.6	0.973
12	1627	16.7	2.3927425908833
12	1637	16.8	0.973
12	1647	16.9	0.973
12	1663	17	1.9912730329527
12	1697	17.1	3.0059175711776
12	1709	17.2	0.973
12	1728	17.3	1.3574637217189
12	1747	17.4	0.973
12	1780	17.5	2.0822955232826
12	1808	17.6	1.7634081908907
12	1833	17.7	2.1734492682352
12	1843	17.8	2.3768861517549
12	1853	17.9	0.973
12	1869	18	0.973
12	1903	18.1	2.4256248433434
12	1915	18.2	0.973
12	1934	18.3	3.3789027167374
12	1953	18.4	0.973
12	1978	18.5	2.7351527249298
12	2006	18.6	2.2407113166516
12	2031	18.7	0.973
12	2041	18.8	2.8318445691812
12	2060	18.9	0.973
12	2076	19	2.007000594897
12	2110	19.1	3.2816665256411
12	2122	19.2	0.973
12	2141	19.3	2.0477974676602
12	2160	19.4	0.973
12	2200	19.5	3.7352457190486
12	2228	19.6	1.7611919120671
12	2253	19.7	0.973
12	2263	19.8	0.973
12	2288	19.9	1.6311678405979
12	2304	20	3.5641692540786
12	2338	20.1	0.973
12	2350	20.2	0.973
12	2369	20.3	3.9303661465537
12	2388	20.4	0.973
12	2428	20.5	0.973
12	2456	20.6	3.824387314179
12	2490	20.7	0.973
12	2500	20.8	2.2533591075507
12	2525	20.9	0.973
12	2541	21	3.4896777874771
12	2575	21.1	1.5111479425852
11	4	0.3	2.4479752470855
11	5	0.4	2.3290637582572
11	6	0.5	2.1818481258762
11	7	0.6	2.2357036410334
11	17	0.7	1.9855717337837
11	18	0.8	2.1556800054752
11	19	0.9	1.8177961522857
11	20	1	2.1703654659723
11	21	1.1	1.8999668675033
11	22	1.2	1.8135391334582
11	23	1.3	2.0311366270296
11	24	1.4	1.4406950977165
11	25	1.5	1.3472384067252
11	26	1.6	2.1015260222834
11	36	1.7	1.5707574565429
11	37	1.8	1.9124366020085
11	38	1.9	1.861542067118
11	48	2	1.3967243768042
11	49	2.1	2.5076531236758
11	50	2.2	2.4867319139419
11	51	2.3	2.121286001429
11	52	2.4	1.5883962160442
11	53	2.5	1.4688865736127
11	63	2.6	1.5610938670114
11	73	2.7	1.9233792753657
11	74	2.8	2.4462432491127
11	75	2.9	1.8433742713882
11	85	3	1.3719304058002
11	86	3.1	2.4623201116454
11	87	3.2	2.2560777051607
11	88	3.3	2.0070045632543
11	89	3.4	2.5755732625723
11	99	3.5	1.8042755607981
11	109	3.6	1.3731275021331
11	119	3.7	2.1326397273224
11	120	3.8	1.6930794459535
11	121	3.9	1.7332032753387
11	131	4	2.3265026698355
11	132	4.1	2.1899431454483
11	133	4.2	1.8587441912619
11	134	4.3	1.0936788601947
11	135	4.4	1.0369316855213
11	145	4.5	-0.32897679989691
11	164	4.6	0.33201870198827
11	174	4.7	-0.2057018057676
11	175	4.8	-0.066980447247627
11	176	4.9	-0.33035720579791
11	186	5	-0.45969738354907
11	187	5.1	1.1969682039926
11	188	5.2	0.021484975144261
11	189	5.3	-0.3340381334303
11	190	5.4	-0.15355962580069
11	200	5.5	-0.19803999811412
11	219	5.6	0.61445922520944
11	244	5.7	-0.29201698363758
11	245	5.8	-0.51708571577912
11	246	5.9	0.16875854427926
11	256	6	0.75636268621311
11	257	6.1	-0.94964809985832
11	258	6.2	0.20674768991304
11	268	6.3	-0.41001622341573
11	269	6.4	0.24969769935122
11	279	6.5	0.031252260366461
11	298	6.6	-0.02222026861272
11	323	6.7	0.60059813889675
11	324	6.8	0.27474176925606
11	325	6.9	-0.47354973300825
11	335	7	0.1107338676462
11	336	7.1	0.34405440429691
11	337	7.2	-1.1217979558976
11	347	7.3	0.11745838844218
11	348	7.4	0.11953850144055
11	358	7.5	0.71727287713438
11	377	7.6	-0.83827383765021
11	402	7.7	0.14285724421498
11	403	7.8	-0.36152056152932
11	404	7.9	0.31919023548253
11	414	8	0.68899224719498
11	424	8.1	-0.18896169906947
11	425	8.2	0.23485477867069
11	435	8.3	-0.13333889076019
11	436	8.4	-0.058087199996226
11	446	8.5	-0.33491709721275
11	465	8.6	0.66500768021214
11	490	8.7	-0.7275173837319
11	491	8.8	0.21314940357115
11	492	8.9	-0.0030131190549554
11	502	9	0.17679672220256
11	521	9.1	0.41595033274499
11	522	9.2	-0.59289674859029
11	541	9.3	0.18516858739313
11	542	9.4	-0.54177471802104
11	552	9.5	-0.021628477470941
11	571	9.6	0.36910805674269
11	596	9.7	-0.33660960355773
11	597	9.8	-0.035325882700281
11	598	9.9	0.093588442984043
11	608	10	-0.3991859653499
11	627	10.1	0.25582346464509
11	628	10.2	-0.19998621705454
11	647	10.3	0.97114613109733
11	648	10.4	-0.36923651315737
11	658	10.5	0.23468703017571
11	677	10.6	-0.87760096890852
11	702	10.7	0.87241520066746
11	703	10.8	0.37752444492652
11	704	10.9	-1.0386956318747
11	714	11	0.7021250488935
11	742	11.1	-0.33054412603377
11	743	11.2	-0.34313876812814
11	762	11.3	0.53915208743421
11	763	11.4	0.42796109484042
11	786	11.5	-1.1892673606286
11	805	11.6	0.36145308148116
11	830	11.7	-0.28936887134332
11	831	11.8	0.65644621183164
11	832	11.9	-0.3081464482937
11	842	12	0.05859996143263
11	870	12.1	-0.41321741288993
11	882	12.2	0.59990503566805
11	901	12.3	0.56036473305429
11	902	12.4	-0.098408802202901
11	927	12.5	-0.43779857635963
11	946	12.6	-0.080897728190763
11	971	12.7	-0.19205811803696
11	972	12.8	-0.058254570141418
11	973	12.9	0.5154778756434
11	983	13	-0.58712048013694
11	1011	13.1	0.5747643101029
11	1023	13.2	-0.11528550467919
11	1042	13.3	-0.38334155003541
11	1043	13.4	0.16218056199142
11	1068	13.5	0.55056199221871
11	1087	13.6	-0.32041634004562
11	1112	13.7	0.15551097395363
11	1113	13.8	-0.81814380546566
11	1123	13.9	-0.10280064395628
11	1133	14	0.75438216517213
11	1161	14.1	0.1483872469049
11	1173	14.2	-0.37099657824729
11	1192	14.3	0.45280969077721
11	1202	14.4	-0.31864290195516
11	1227	14.5	0.15716350385919
11	1246	14.6	-0.64071714810561
11	1271	14.7	0.42133449036628
11	1272	14.8	0.51517875653225
11	1282	14.9	-1.0418800320011
11	1292	15	0.61583601499443
11	1320	15.1	0.16862197786104
11	1332	15.2	0.014692549942996
11	1351	15.3	-0.82559659513645
11	1361	15.4	0.68308753655291
11	1386	15.5	-0.72041607769206
11	1405	15.6	0.11160552080256
11	1430	15.7	0.35733288731427
11	1440	15.8	0.65777157691771
11	1450	15.9	-0.50637715922202
11	1466	16	0.54714866625144
11	1500	16.1	-0.73643428843933
11	1512	16.2	-0.11513970259111
11	1531	16.3	-0.19921194326598
11	1550	16.4	0.12544046132824
11	1583	16.5	0.91588254412637
11	1602	16.6	-0.84081061158795
11	1627	16.7	0.41646549322177
11	1637	16.8	-0.20606347548309
11	1647	16.9	-0.54554798055907
11	1663	17	0.21845109395217
11	1697	17.1	0.7215092552593
11	1709	17.2	-0.20360796593595
11	1728	17.3	-0.10216062047984
11	1747	17.4	-0.64029227248394
11	1780	17.5	0.26410613220651
11	1808	17.6	0.10284660104661
11	1833	17.7	0.3071486097295
11	1843	17.8	0.40585154984147
11	1853	17.9	-0.25668027407956
11	1869	18	-0.53685926860197
11	1903	18.1	0.43327304425183
11	1915	18.2	-0.54994467003272
11	1934	18.3	0.9061679233797
11	1953	18.4	-0.84317406166811
11	1978	18.5	0.58742619494442
11	2006	18.6	0.33729070038534
11	2031	18.7	-1.0282360028475
11	2041	18.8	0.63645327968988
11	2060	18.9	-0.66912920253817
11	2076	19	0.22578585755545
11	2110	19.1	0.85621741663198
11	2122	19.2	-1.1774576999247
11	2141	19.3	0.24681551354005
11	2160	19.4	-0.24095179028809
11	2200	19.5	1.0838374265237
11	2228	19.6	0.09797059444244
11	2253	19.7	-0.39682411099784
11	2263	19.8	-0.65261386588681
11	2288	19.9	0.036983001837498
11	2304	20	0.99716818165035
11	2338	20.1	-0.4939693438355
11	2350	20.2	-0.59660413800739
11	2369	20.3	1.1782507186756
11	2388	20.4	-0.23417929837015
11	2428	20.5	-1.0164567729691
11	2456	20.6	1.1275356535567
11	2490	20.7	-1.1506377980346
11	2500	20.8	0.34979883839842
11	2525	20.9	-0.36654976226856
11	2541	21	0.96359404579271
11	2575	21.1	-0.025846490799442
10	3	0.2	0.25286542447004
10	4	0.3	0.49766294917859
10	5	0.4	0.73056932500431
10	6	0.5	0.94875413759194
10	7	0.6	1.1723245016953
10	17	0.7	1.3708816750736
10	18	0.8	1.5864496756212
10	19	0.9	1.7682292908497
10	20	1	1.985265837447
10	21	1.1	2.1752625241973
10	22	1.2	2.3566164375431
10	23	1.3	2.5597301002461
10	24	1.4	2.7037996100177
10	25	1.5	2.8385234506903
10	26	1.6	3.0486760529186
10	36	1.7	3.2057517985729
10	37	1.8	3.3969954587737
10	38	1.9	3.5831496654855
10	48	2	3.722822103166
10	49	2.1	3.9735874155335
10	50	2.2	4.2222606069277
10	51	2.3	4.4343892070706
10	52	2.4	4.593228828675
10	53	2.5	4.7401174860363
10	63	2.6	4.8962268727375
10	73	2.7	5.088564800274
10	74	2.8	5.3331891251853
10	75	2.9	5.5175265523241
10	85	3	5.6547195929041
10	86	3.1	5.9009516040687
10	87	3.2	6.1265593745848
10	88	3.3	6.3272598309102
10	89	3.4	6.5848171571674
10	99	3.5	6.7652447132472
10	109	3.6	6.9025574634605
10	119	3.7	7.1158214361928
10	120	3.8	7.2851293807881
10	121	3.9	7.458449708322
10	131	4	7.6910999753055
10	132	4.1	7.9100942898504
10	133	4.2	8.0959687089766
10	134	4.3	8.205336594996
10	135	4.4	8.3090297635482
10	145	4.5	8.2761320835585
10	164	4.6	8.3093339537573
10	174	4.7	8.2887637731805
10	175	4.8	8.2820657284558
10	176	4.9	8.249030007876
10	186	5	8.2030602695211
10	187	5.1	8.3227570899203
10	188	5.2	8.3249055874348
10	189	5.3	8.2915017740917
10	190	5.4	8.2761458115117
10	200	5.5	8.2563418117003
10	219	5.6	8.3177877342212
10	244	5.7	8.2885860358574
10	245	5.8	8.2368774642795
10	246	5.9	8.2537533187075
10	256	6	8.3293895873288
10	257	6.1	8.2344247773429
10	258	6.2	8.2550995463342
10	268	6.3	8.2140979239927
10	269	6.4	8.2390676939278
10	279	6.5	8.2421929199644
10	298	6.6	8.2399708931032
10	323	6.7	8.3000307069928
10	324	6.8	8.3275048839184
10	325	6.9	8.2801499106176
10	335	7	8.2912232973822
10	336	7.1	8.3256287378119
10	337	7.2	8.2134489422222
10	347	7.3	8.2251947810664
10	348	7.4	8.2371486312104
10	358	7.5	8.3088759189239
10	377	7.6	8.2250485351589
10	402	7.7	8.2393342595804
10	403	7.8	8.2031822034274
10	404	7.9	8.2351012269757
10	414	8	8.3040004516952
10	424	8.1	8.2851042817882
10	425	8.2	8.3085897596553
10	435	8.3	8.2952558705793
10	436	8.4	8.2894471505797
10	446	8.5	8.2559554408584
10	465	8.6	8.3224562088796
10	490	8.7	8.2497044705064
10	491	8.8	8.2710194108635
10	492	8.9	8.270718098958
10	502	9	8.2883977711783
10	521	9.1	8.3299928044528
10	522	9.2	8.2707031295937
10	541	9.3	8.2892199883331
10	542	9.4	8.235042516531
10	552	9.5	8.2328796687839
10	571	9.6	8.2697904744581
10	596	9.7	8.2361295141024
10	597	9.8	8.2325969258323
10	598	9.9	8.2419557701307
10	608	10	8.2020371735957
10	627	10.1	8.2276195200603
10	628	10.2	8.2076208983548
10	647	10.3	8.3047355114645
10	648	10.4	8.2678118601488
10	658	10.5	8.2912805631664
10	677	10.6	8.2035204662755
10	702	10.7	8.2907619863423
10	703	10.8	8.3285144308349
10	704	10.9	8.2246448676474
10	714	11	8.2948573725368
10	742	11.1	8.2618029599334
10	743	11.2	8.2274890831206
10	762	11.3	8.281404291864
10	763	11.4	8.3242004013481
10	786	11.5	8.2052736652852
10	805	11.6	8.2414189734333
10	830	11.7	8.212482086299
10	831	11.8	8.2781267074822
10	832	11.9	8.2473120626528
10	842	12	8.253172058796
10	870	12.1	8.2118503175071
10	882	12.2	8.2718408210739
10	901	12.3	8.3278772943793
10	902	12.4	8.318036414159
10	927	12.5	8.274256556523
10	946	12.6	8.266166783704
10	971	12.7	8.2469609719003
10	972	12.8	8.2411355148861
10	973	12.9	8.2926833024505
10	983	13	8.2339712544368
10	1011	13.1	8.2914476854471
10	1023	13.2	8.2799191349791
10	1042	13.3	8.2415849799756
10	1043	13.4	8.2578030361747
10	1068	13.5	8.3128592353966
10	1087	13.6	8.280817601392
10	1112	13.7	8.2963686987874
10	1113	13.8	8.2145543182408
10	1123	13.9	8.2042742538452
10	1133	14	8.2797124703624
10	1161	14.1	8.2945511950529
10	1173	14.2	8.2574515372282
10	1192	14.3	8.3027325063059
10	1202	14.4	8.2708682161104
10	1227	14.5	8.2865845664963
10	1246	14.6	8.2225128516858
10	1271	14.7	8.2646463007224
10	1272	14.8	8.3161641763756
10	1282	14.9	8.2119761731755
10	1292	15	8.2735597746749
10	1320	15.1	8.290421972461
10	1332	15.2	8.2918912274553
10	1351	15.3	8.2093315679417
10	1361	15.4	8.277640321597
10	1386	15.5	8.2055987138278
10	1405	15.6	8.216759265908
10	1430	15.7	8.2524925546395
10	1440	15.8	8.3182697123312
10	1450	15.9	8.267631996409
10	1466	16	8.3223468630342
10	1500	16.1	8.2487034341902
10	1512	16.2	8.2371894639311
10	1531	16.3	8.2172682696045
10	1550	16.4	8.2298123157374
10	1583	16.5	8.32140057015
10	1602	16.6	8.2373195089912
10	1627	16.7	8.2789660583134
10	1637	16.8	8.2583597107651
10	1647	16.9	8.2038049127092
10	1663	17	8.2256500221044
10	1697	17.1	8.2978009476303
10	1709	17.2	8.2774401510367
10	1728	17.3	8.2672240889887
10	1747	17.4	8.2031948617403
10	1780	17.5	8.229605474961
10	1808	17.6	8.2398901350657
10	1833	17.7	8.2706049960386
10	1843	17.8	8.3111901510227
10	1853	17.9	8.2855221236148
10	1869	18	8.2318361967546
10	1903	18.1	8.2751635011798
10	1915	18.2	8.2201690341765
10	1934	18.3	8.3107858265145
10	1953	18.4	8.2264684203477
10	1978	18.5	8.2852110398421
10	2006	18.6	8.3189401098806
10	2031	18.7	8.2161165095959
10	2041	18.8	8.2797618375649
10	2060	18.9	8.2128489173111
10	2076	19	8.2354275030666
10	2110	19.1	8.3210492447298
10	2122	19.2	8.2033034747373
10	2141	19.3	8.2279850260913
10	2160	19.4	8.2038898470625
10	2200	19.5	8.3122735897149
10	2228	19.6	8.3220706491591
10	2253	19.7	8.2823882380594
10	2263	19.8	8.2171268514707
10	2288	19.9	8.2208251516544
10	2304	20	8.3205419698195
10	2338	20.1	8.2711450354359
10	2350	20.2	8.2114846216352
10	2369	20.3	8.3293096935027
10	2388	20.4	8.3058917636657
10	2428	20.5	8.2042460863688
10	2456	20.6	8.3169996517245
10	2490	20.7	8.201935871921
10	2500	20.8	8.2369157557609
10	2525	20.9	8.200260779534
10	2541	21	8.2966201841133
10	2575	21.1	8.2940355350333
9	2	0.1	3090.7860316122
9	3	0.2	3090.7860316122
9	4	0.3	3090.7843757483
9	5	0.4	3090.7811168523
9	6	0.5	3090.7763327923
9	7	0.6	3090.770119971
9	17	0.7	3090.7624431215
9	18	0.8	3090.7534660403
9	19	0.9	3090.7430773336
9	20	1	3090.7314982613
9	21	1.1	3090.718497947
9	22	1.2	3090.7042534584
9	23	1.3	3090.6888213919
9	24	1.4	3090.6720592559
9	25	1.5	3090.6543536952
9	26	1.6	3090.6357659089
9	36	1.7	3090.6158019593
9	37	1.8	3090.594809415
9	38	1.9	3090.5725645308
9	48	2	3090.5491006344
9	49	2.1	3090.524722107
9	50	2.2	3090.4987014681
9	51	2.3	3090.4710524178
9	52	2.4	3090.4420142645
9	53	2.5	3090.411935966
9	63	2.6	3090.3808957817
9	73	2.7	3090.3488333309
9	74	2.8	3090.3155113743
9	75	2.9	3090.2805875199
9	85	3	3090.2444565504
9	86	3.1	3090.2074271859
9	87	3.2	3090.1687853959
9	88	3.3	3090.1286662359
9	89	3.4	3090.0872328092
9	99	3.5	3090.0441127941
9	109	3.6	3089.9998112672
9	119	3.7	3089.9546105615
9	120	3.8	3089.9080133181
9	121	3.9	3089.8603073786
9	131	4	3089.8114664684
9	132	4.1	3089.7611020711
9	133	4.2	3089.7093036115
9	134	4.3	3089.656287972
9	135	4.4	3089.6025561478
9	145	4.5	3089.5481452993
9	164	4.6	3089.4939498779
9	174	4.7	3089.4395370374
9	175	4.8	3089.3852588987
9	176	4.9	3089.3310246215
9	186	5	3089.2770066753
9	187	5.1	3089.2232897574
9	188	5.2	3089.1687890169
9	189	5.3	3089.1142742071
9	190	5.4	3089.0599781389
9	200	5.5	3089.0057826276
9	219	5.6	3088.9517168009
9	244	5.7	3088.8972486016
9	245	5.8	3088.8429716268
9	246	5.9	3088.7890332604
9	256	6	3088.7349843841
9	257	6.1	3088.6804402113
9	258	6.2	3088.6265179061
9	268	6.3	3088.5724602142
9	269	6.4	3088.5186710173
9	279	6.5	3088.4647183084
9	298	6.6	3088.4107451342
9	323	6.7	3088.3567865108
9	324	6.8	3088.2597228587
9	325	6.9	3088.1562237406
9	335	7	3088.0533131779
9	336	7.1	3087.9502649886
9	337	7.2	3087.8467891884
9	347	7.3	3087.7447076244
9	348	7.4	3087.6424800763
9	358	7.5	3087.5401039587
9	377	7.6	3087.4368363723
9	402	7.7	3087.3346106418
9	403	7.8	3087.23220736
9	404	7.9	3087.1302533971
9	414	8	3087.0279027259
9	424	8.1	3086.9246957346
9	425	8.2	3086.8217235961
9	435	8.3	3086.7184595662
9	436	8.4	3086.6153612578
9	446	8.5	3086.5123351435
9	465	8.6	3086.4097252839
9	490	8.7	3086.3062889137
9	491	8.8	3086.2037567447
9	492	8.9	3086.1009596612
9	502	9	3085.9981663226
9	521	9.1	3085.8951532507
9	522	9.2	3085.7916232112
9	541	9.3	3085.6888300586
9	542	9.4	3085.5858067677
9	552	9.5	3085.4834568261
9	571	9.6	3085.3811337657
9	596	9.7	3085.2783519561
9	597	9.8	3085.1759885048
9	598	9.9	3085.0736689584
9	608	10	3084.9712330949
9	627	10.1	3084.8692933632
9	628	10.2	3084.767035679
9	647	10.3	3084.6650265494
9	648	10.4	3084.5618104224
9	658	10.5	3084.4590532042
9	677	10.6	3084.3560043032
9	702	10.7	3084.2540461362
9	703	10.8	3084.1510036804
9	704	10.9	3084.047492015
9	714	11	3083.9452713016
9	742	11.1	3083.8421779459
9	743	11.2	3083.7394954098
9	762	11.3	3083.6372393468
9	763	11.4	3083.5343131939
9	786	11.5	3083.4308551458
9	805	11.6	3083.328875189
9	830	11.7	3083.2264459971
9	831	11.8	3083.1243764499
9	832	11.9	3083.0214910327
9	842	12	3082.918988598
9	870	12.1	3082.8164133319
9	882	12.2	3082.7143516366
9	901	12.3	3082.6115443441
9	902	12.4	3082.5080405975
9	927	12.5	3082.4046591591
9	946	12.6	3082.3018218424
9	971	12.7	3082.1990850702
9	972	12.8	3082.0965869991
9	973	12.9	3081.9941613302
9	983	13	3081.8910949951
9	1011	13.1	3081.7887583679
9	1023	13.2	3081.6857073898
9	1042	13.3	3081.5827996953
9	1043	13.4	3081.4803684401
9	1068	13.5	3081.3777356175
9	1087	13.6	3081.2744185241
9	1112	13.7	3081.1714996629
9	1113	13.8	3081.0683875236
9	1123	13.9	3080.9662922214
9	1133	14	3080.8643246859
9	1161	14.1	3080.7614195599
9	1173	14.2	3080.6583300096
9	1192	14.3	3080.5557015556
9	1202	14.4	3080.4525103231
9	1227	14.5	3080.3497151188
9	1246	14.6	3080.2467245824
9	1271	14.7	3080.1445303669