version 2
run low-0-20160707-10:45:02-27261
attr configname low
attr datetime 20160707-10:45:02
attr experiment low
attr inifile omnetpp.ini
attr iterationvars ""
attr iterationvars2 $repetition=0
attr measurement ""
attr network RSUExampleScenario
attr processid 27261
attr repetition 0
attr replication #0
attr resultdir results
attr runnumber 0
attr seedset 0

vector 8  RSUExampleScenario.node[0].veinsmobility  posx  ETV
vector 9  RSUExampleScenario.node[0].veinsmobility  posy  ETV
vector 10  RSUExampleScenario.node[0].veinsmobility  speed  ETV
vector 11  RSUExampleScenario.node[0].veinsmobility  acceleration  ETV
vector 12  RSUExampleScenario.node[0].veinsmobility  co2emission  ETV
vector 17  RSUExampleScenario.node[1].veinsmobility  posx  ETV
vector 18  RSUExampleScenario.node[1].veinsmobility  posy  ETV
vector 19  RSUExampleScenario.node[1].veinsmobility  speed  ETV
vector 20  RSUExampleScenario.node[1].veinsmobility  acceleration  ETV
vector 21  RSUExampleScenario.node[1].veinsmobility  co2emission  ETV
vector 26  RSUExampleScenario.node[2].veinsmobility  posx  ETV
vector 27  RSUExampleScenario.node[2].veinsmobility  posy  ETV
vector 28  RSUExampleScenario.node[2].veinsmobility  speed  ETV
vector 29  RSUExampleScenario.node[2].veinsmobility  acceleration  ETV
vector 30  RSUExampleScenario.node[2].veinsmobility  co2emission  ETV
vector 35  RSUExampleScenario.node[3].veinsmobility  posx  ETV
vector 36  RSUExampleScenario.node[3].veinsmobility  posy  ETV
vector 37  RSUExampleScenario.node[3].veinsmobility  speed  ETV
vector 38  RSUExampleScenario.node[3].veinsmobility  acceleration  ETV
vector 39  RSUExampleScenario.node[3].veinsmobility  co2emission  ETV
vector 44  RSUExampleScenario.node[4].veinsmobility  posx  ETV
vector 45  RSUExampleScenario.node[4].veinsmobility  posy  ETV
vector 46  RSUExampleScenario.node[4].veinsmobility  speed  ETV
vector 47  RSUExampleScenario.node[4].veinsmobility  acceleration  ETV
vector 48  RSUExampleScenario.node[4].veinsmobility  co2emission  ETV
vector 53  RSUExampleScenario.node[5].veinsmobility  posx  ETV
vector 54  RSUExampleScenario.node[5].veinsmobility  posy  ETV
vector 55  RSUExampleScenario.node[5].veinsmobility  speed  ETV
vector 56  RSUExampleScenario.node[5].veinsmobility  acceleration  ETV
vector 57  RSUExampleScenario.node[5].veinsmobility  co2emission  ETV
vector 62  RSUExampleScenario.node[6].veinsmobility  posx  ETV
vector 63  RSUExampleScenario.node[6].veinsmobility  posy  ETV
vector 64  RSUExampleScenario.node[6].veinsmobility  speed  ETV
vector 65  RSUExampleScenario.node[6].veinsmobility  acceleration  ETV
vector 66  RSUExampleScenario.node[6].veinsmobility  co2emission  ETV
vector 71  RSUExampleScenario.node[7].veinsmobility  posx  ETV
vector 72  RSUExampleScenario.node[7].veinsmobility  posy  ETV
vector 73  RSUExampleScenario.node[7].veinsmobility  speed  ETV
vector 74  RSUExampleScenario.node[7].veinsmobility  acceleration  ETV
vector 75  RSUExampleScenario.node[7].veinsmobility  co2emission  ETV
vector 80  RSUExampleScenario.node[8].veinsmobility  posx  ETV
vector 81  RSUExampleScenario.node[8].veinsmobility  posy  ETV
vector 82  RSUExampleScenario.node[8].veinsmobility  speed  ETV
vector 83  RSUExampleScenario.node[8].veinsmobility  acceleration  ETV
vector 84  RSUExampleScenario.node[8].veinsmobility  co2emission  ETV
vector 89  RSUExampleScenario.node[9].veinsmobility  posx  ETV
vector 90  RSUExampleScenario.node[9].veinsmobility  posy  ETV
vector 91  RSUExampleScenario.node[9].veinsmobility  speed  ETV
vector 92  RSUExampleScenario.node[9].veinsmobility  acceleration  ETV
vector 93  RSUExampleScenario.node[9].veinsmobility  co2emission  ETV
vector 98  RSUExampleScenario.node[10].veinsmobility  posx  ETV
vector 99  RSUExampleScenario.node[10].veinsmobility  posy  ETV
vector 100  RSUExampleScenario.node[10].veinsmobility  speed  ETV
vector 101  RSUExampleScenario.node[10].veinsmobility  acceleration  ETV
vector 102  RSUExampleScenario.node[10].veinsmobility  co2emission  ETV
vector 107  RSUExampleScenario.node[11].veinsmobility  posx  ETV
vector 108  RSUExampleScenario.node[11].veinsmobility  posy  ETV
vector 109  RSUExampleScenario.node[11].veinsmobility  speed  ETV
vector 110  RSUExampleScenario.node[11].veinsmobility  acceleration  ETV
vector 111  RSUExampleScenario.node[11].veinsmobility  co2emission  ETV
vector 116  RSUExampleScenario.node[12].veinsmobility  posx  ETV
vector 117  RSUExampleScenario.node[12].veinsmobility  posy  ETV
vector 118  RSUExampleScenario.node[12].veinsmobility  speed  ETV
vector 119  RSUExampleScenario.node[12].veinsmobility  acceleration  ETV
vector 120  RSUExampleScenario.node[12].veinsmobility  co2emission  ETV
vector 125  RSUExampleScenario.node[13].veinsmobility  posx  ETV
vector 126  RSUExampleScenario.node[13].veinsmobility  posy  ETV
vector 127  RSUExampleScenario.node[13].veinsmobility  speed  ETV
vector 128  RSUExampleScenario.node[13].veinsmobility  acceleration  ETV
vector 129  RSUExampleScenario.node[13].veinsmobility  co2emission  ETV
vector 134  RSUExampleScenario.node[14].veinsmobility  posx  ETV
vector 135  RSUExampleScenario.node[14].veinsmobility  posy  ETV
vector 136  RSUExampleScenario.node[14].veinsmobility  speed  ETV
vector 137  RSUExampleScenario.node[14].veinsmobility  acceleration  ETV
vector 138  RSUExampleScenario.node[14].veinsmobility  co2emission  ETV
vector 143  RSUExampleScenario.node[15].veinsmobility  posx  ETV
vector 144  RSUExampleScenario.node[15].veinsmobility  posy  ETV
vector 145  RSUExampleScenario.node[15].veinsmobility  speed  ETV
vector 146  RSUExampleScenario.node[15].veinsmobility  acceleration  ETV
vector 147  RSUExampleScenario.node[15].veinsmobility  co2emission  ETV
vector 152  RSUExampleScenario.node[16].veinsmobility  posx  ETV
vector 153  RSUExampleScenario.node[16].veinsmobility  posy  ETV
vector 154  RSUExampleScenario.node[16].veinsmobility  speed  ETV
vector 155  RSUExampleScenario.node[16].veinsmobility  acceleration  ETV
vector 156  RSUExampleScenario.node[16].veinsmobility  co2emission  ETV
vector 161  RSUExampleScenario.node[17].veinsmobility  posx  ETV
vector 162  RSUExampleScenario.node[17].veinsmobility  posy  ETV
vector 163  RSUExampleScenario.node[17].veinsmobility  speed  ETV
vector 164  RSUExampleScenario.node[17].veinsmobility  acceleration  ETV
vector 165  RSUExampleScenario.node[17].veinsmobility  co2emission  ETV
vector 170  RSUExampleScenario.node[18].veinsmobility  posx  ETV
vector 171  RSUExampleScenario.node[18].veinsmobility  posy  ETV
vector 172  RSUExampleScenario.node[18].veinsmobility  speed  ETV
vector 173  RSUExampleScenario.node[18].veinsmobility  acceleration  ETV
vector 174  RSUExampleScenario.node[18].veinsmobility  co2emission  ETV
vector 179  RSUExampleScenario.node[19].veinsmobility  posx  ETV
vector 180  RSUExampleScenario.node[19].veinsmobility  posy  ETV
vector 181  RSUExampleScenario.node[19].veinsmobility  speed  ETV
vector 182  RSUExampleScenario.node[19].veinsmobility  acceleration  ETV
vector 183  RSUExampleScenario.node[19].veinsmobility  co2emission  ETV
vector 188  RSUExampleScenario.node[20].veinsmobility  posx  ETV
vector 189  RSUExampleScenario.node[20].veinsmobility  posy  ETV
vector 190  RSUExampleScenario.node[20].veinsmobility  speed  ETV
vector 191  RSUExampleScenario.node[20].veinsmobility  acceleration  ETV
vector 192  RSUExampleScenario.node[20].veinsmobility  co2emission  ETV
vector 197  RSUExampleScenario.node[21].veinsmobility  posx  ETV
vector 198  RSUExampleScenario.node[21].veinsmobility  posy  ETV
vector 199  RSUExampleScenario.node[21].veinsmobility  speed  ETV
vector 200  RSUExampleScenario.node[21].veinsmobility  acceleration  ETV
vector 201  RSUExampleScenario.node[21].veinsmobility  co2emission  ETV
12	4	0.3	1.4276208928798
12	5	0.4	1.5553504369406
12	6	0.5	1.6547258140606
12	7	0.6	1.7983555805977
12	8	0.7	1.8323674505787
12	9	0.8	2.0110897446338
12	10	0.9	1.970451684244
12	11	1	2.244901373431
12	12	1.1	2.2119208452933
12	13	1.2	2.2548819012347
12	14	1.3	2.5345448660167
12	15	1.4	2.6013847819414
12	16	1.5	2.852151772081
12	17	1.6	2.3526342216865
12	18	1.7	3.339605186172
12	19	1.8	2.4276646371033
12	20	1.9	3.3234379637286
12	21	2	3.3108190720898
12	22	2.1	3.2988402737822
12	23	2.2	2.9578171889378
12	24	2.3	2.9959376211745
12	25	2.4	3.4908200907348
12	26	2.5	3.6670806850063
12	27	2.6	3.6268696198063
12	28	2.7	4.0205201967415
12	29	2.8	3.1988957479633
12	30	2.9	3.4137976506977
12	31	3	4.907912272511
12	32	3.1	4.5496391886597
12	33	3.2	5.1843707050129
12	34	3.3	4.1693986672107
12	35	3.4	5.6101076366628
12	36	3.5	5.0020310617087
12	37	3.6	4.0626847333335
12	38	3.7	3.8401948998282
12	39	3.8	4.3141859897661
12	40	3.9	5.9388528208016
12	41	4	4.2651793352288
12	42	4.1	4.3265655158527
12	43	4.2	4.1097063864491
12	44	4.3	5.4862156132822
12	45	4.4	1.7732777728508
12	46	4.5	1.5537194199314
12	47	4.6	2.4406601611773
12	48	4.7	1.4079584745704
12	49	4.8	0.973
12	50	4.9	1.8217719488593
12	51	5	3.0245587219023
12	52	5.1	0.973
12	53	5.2	1.768174889553
12	54	5.3	1.7098807088821
12	55	5.4	2.7062443122697
12	56	5.5	0.973
12	57	5.6	0.973
12	58	5.7	2.0384147642153
12	59	5.8	2.1735488090585
12	60	5.9	2.6480299374106
12	61	6	0.973
12	62	6.1	1.4084096729441
12	63	6.2	2.1062277230447
12	64	6.3	1.7671546571645
12	65	6.4	0.973
12	66	6.5	1.6550581947357
12	67	6.6	2.2887707867448
12	68	6.7	2.1865296577993
12	69	6.8	0.973
12	70	6.9	2.6922656854627
12	71	7	1.8688346712939
12	72	7.1	0.973
12	73	7.2	0.973
12	74	7.3	2.7823489144606
12	75	7.4	0.973
12	76	7.5	2.5769863893092
12	77	7.6	0.973
12	78	7.7	0.973
12	79	7.8	0.973
12	80	7.9	0.973
12	81	8	0.973
12	82	8.1	0.973
12	83	8.2	0.973
12	84	8.3	0.973
12	85	8.4	0.973
12	86	8.5	0.973
12	87	8.6	0.973
12	88	8.7	0.973
12	89	8.8	0.973
12	90	8.9	0.973
12	91	9	0.973
12	92	9.1	0.973
12	93	9.2	0.973
12	94	9.3	0.973
12	95	9.4	0.973
12	96	9.5	0.973
12	97	9.6	3.6361883701135
12	98	9.7	3.8127242534406
12	99	9.8	3.989409871714
12	100	9.9	4.1662549668408
12	101	10	4.3432692807281
12	102	10.1	4.5204625552832
12	103	10.2	4.6978445324133
12	104	10.3	4.8754249540254
12	105	10.4	5.0532135620268
12	106	10.5	5.0282949102043
12	107	10.6	4.1021189793947
12	108	10.7	3.4466560931922
12	109	10.8	4.3648596899049
12	110	10.9	4.8237133118565
12	111	11	4.8028235370575
12	112	11.1	4.5666030056344
12	113	11.2	5.3312202705033
12	114	11.3	4.637757367953
12	115	11.4	5.6103735870539
12	116	11.5	4.5624213412529
12	117	11.6	4.1923085879373
12	118	11.7	4.9998932436391
12	119	11.8	3.8356994555886
12	120	11.9	0.973
12	121	12	1.4281255465767
12	122	12.1	0.973
12	123	12.2	1.7988806922415
12	124	12.3	2.51501257287
12	125	12.4	2.7483249874104
12	126	12.5	0.973
12	127	12.6	2.6899755139037
12	128	12.7	0.973
12	129	12.8	0.973
12	130	12.9	3.1714490571459
12	131	13	1.2464483949418
12	132	13.1	0.973
12	133	13.2	0.973
12	134	13.3	1.4600814796542
12	135	13.4	3.3876818045097
12	136	13.5	0.973
12	137	13.6	0.973
12	138	13.7	2.4828319047258
12	139	13.8	0.973
12	140	13.9	1.5457812934515
12	141	14	3.7487904456591
12	142	14.1	0.973
12	143	14.2	2.265418574679
12	144	14.3	0.973
12	145	14.4	2.0637776732161
12	146	14.5	0.973
12	147	14.6	3.0616485809214
12	148	14.7	1.2165699939346
12	149	14.8	0.973
12	150	14.9	2.5734713186634
12	151	15	0.973
12	152	15.1	2.1455581957791
12	153	15.2	0.973
12	154	15.3	0.973
12	155	15.4	2.6415721985067
12	156	15.5	0.973
12	157	15.6	0.973
12	158	15.7	2.4955050476509
12	159	15.8	0.973
12	160	15.9	2.2239779492986
12	161	16	0.973
12	162	16.1	2.1053975004688
12	163	16.2	2.1595695805485
12	164	16.3	0.973
12	165	16.4	3.8107361356337
12	166	16.5	0.973
12	167	16.6	2.4826780578298
12	168	16.7	0.973
12	169	16.8	2.669553943436
12	170	16.9	1.3977825099021
12	171	17	0.973
12	172	17.1	2.5348153551132
12	173	17.2	1.3755533533779
12	174	17.3	1.8878625025132
12	175	17.4	2.3502864588813
12	176	17.5	0.973
12	177	17.6	0.973
12	178	17.7	1.9339505215243
12	179	17.8	1.5733876347795
12	180	17.9	0.973
12	181	18	2.6748987434728
12	182	18.1	1.314208730419
12	183	18.2	0.973
12	184	18.3	1.2247858849771
12	185	18.4	3.585207112457
12	186	18.5	1.5917610309939
12	187	18.6	0.973
12	188	18.7	0.973
12	189	18.8	2.9166001092252
12	190	18.9	0.973
12	191	19	3.2450028407025
12	192	19.1	1.8226836300962
12	193	19.2	1.772316467605
12	194	19.3	1.6790491436835
12	195	19.4	0.973
12	196	19.5	3.4439882279498
12	197	19.6	0.973
12	198	19.7	1.7922112866692
12	199	19.8	2.4720879161003
12	200	19.9	0.973
12	201	20	1.2581804847112
12	202	20.1	0.973
12	203	20.2	1.3939305620102
12	204	20.3	3.4957666136943
12	205	20.4	1.552437757605
12	206	20.5	0.973
12	207	20.6	0.973
12	208	20.7	0.973
12	209	20.8	0.973
12	210	20.9	0.973
12	211	21	0.973
12	212	21.1	0.973
12	213	21.2	0.973
12	214	21.3	0.973
12	215	21.4	0.973
12	216	21.5	0.973
12	217	21.6	0.973
12	218	21.7	0.973
12	219	21.8	0.973
12	220	21.9	0.973
12	221	22	0.973
12	222	22.1	0.973
12	223	22.2	0.973
12	224	22.3	0.973
12	225	22.4	3.588453059686
12	226	22.5	3.7649501082166
12	227	22.6	3.9415942561311
12	228	22.7	4.1183952453367
12	229	22.8	4.2953628177406
12	230	22.9	4.47250671525
12	231	23	4.649836679772
12	232	23.1	4.8273624532138
12	233	23.2	5.0050937774826
12	234	23.3	4.6844220290848
12	235	23.4	4.4592055172183
12	236	23.5	3.6546234841852
12	237	23.6	4.7711559421913
12	238	23.7	4.5319355582939
12	239	23.8	5.7003725089939
12	240	23.9	4.9082250575434
12	241	24	4.8771385786907
12	242	24.1	4.5442475888445
12	243	24.2	5.8628429739426
12	244	24.3	4.2443743153407
12	245	24.4	6.6139989410197
12	246	24.5	2.6569799280109
12	247	24.6	2.8540897214555
12	248	24.7	1.7150198191794
12	249	24.8	0.973
12	250	24.9	2.3860960327253
12	251	25	0.973
12	252	25.1	1.864409501043
12	253	25.2	1.5395790437265
12	254	25.3	1.2973496273266
12	255	25.4	1.7081864136591
12	256	25.5	2.645866099347
12	257	25.6	0.973
12	258	25.7	0.973
12	259	25.8	0.973
12	260	25.9	0.973
12	261	26	0.973
12	262	26.1	0.973
12	263	26.2	0.973
12	264	26.3	0.973
12	265	26.4	0.973
12	266	26.5	0.973
12	267	26.6	0.973
12	268	26.7	0.973
12	269	26.8	0.973
12	270	26.9	0.973
12	271	27	0.973
12	272	27.1	0.973
12	273	27.2	0.973
12	274	27.3	0.973
12	275	27.4	0.973
12	276	27.5	0.973
12	277	27.6	0.973
12	278	27.7	3.5792586533585
12	279	27.8	3.7557483027933
12	280	27.9	3.9323845439062
12	281	28	4.1091771186046
12	282	28.1	4.2861357687955
12	283	28.2	4.4632702363862
12	284	28.3	4.6405902632837
12	285	28.4	4.8181055913954
12	286	28.5	4.9958259626283
12	287	28.6	3.6282184928862
12	288	28.7	3.8731512887181
12	289	28.8	4.7933161856778
12	290	28.9	5.134191544034
12	291	29	5.6801251778565
12	292	29.1	3.9406404690995
12	293	29.2	3.7319463454665
12	294	29.3	4.3096057020076
12	295	29.4	4.6540030846955
12	296	29.5	5.3002773710013
12	297	29.6	4.3869343829103
12	298	29.7	5.5268440797825
12	299	29.8	6.1114167000697
12	300	29.9	3.3233387930321
12	301	30	0.973
12	302	30.1	2.0327496249052
12	303	30.2	1.5966929624994
12	304	30.3	3.3706777573602
12	305	30.4	0.973
12	306	30.5	2.0310259261037
12	307	30.6	1.6747257126441
12	308	30.7	0.973
12	309	30.8	1.7033108966583
12	310	30.9	0.973
12	311	31	1.7089978630373
12	312	31.1	2.5298705309675
12	313	31.2	1.8824368310037
12	314	31.3	0.973
12	315	31.4	1.6077648442075
12	316	31.5	1.6041281934828
12	317	31.6	1.5836716815261
12	318	31.7	1.3642612255208
12	319	31.8	0.973
12	320	31.9	0.973
12	321	32	3.3045210437529
12	322	32.1	2.0053006101834
12	323	32.2	1.2417060183354
12	324	32.3	0.973
12	325	32.4	2.6858049394441
12	326	32.5	0.973
12	327	32.6	2.7754523479291
12	328	32.7	1.4037789808558
12	329	32.8	1.3504472329169
12	330	32.9	2.6383564080557
12	331	33	0.973
12	332	33.1	2.5851825689389
12	333	33.2	1.6099442006223
12	334	33.3	0.973
12	335	33.4	0.973
12	336	33.5	0.973
12	337	33.6	0.973
12	338	33.7	0.973
12	339	33.8	0.973
12	340	33.9	0.973
12	341	34	0.973
12	342	34.1	0.973
12	343	34.2	0.973
12	344	34.3	0.973
12	345	34.4	0.973
12	346	34.5	0.973
12	347	34.6	0.973
12	348	34.7	0.973
12	349	34.8	0.973
12	350	34.9	0.973
12	351	35	0.973
12	352	35.1	0.973
12	353	35.2	0.973
12	354	35.3	3.5422867858155
12	355	35.4	3.7187469467078
12	356	35.5	3.8953516575231
12	357	35.6	4.0721106601685
12	358	35.7	4.2490336965514
12	359	35.8	4.4261305085788
12	360	35.9	4.6034108381579
12	361	36	4.780884427196
12	362	36.1	4.9585610176
12	363	36.2	4.4124804894599
12	364	36.3	3.6333483628735
12	365	36.4	4.0814867183293
12	366	36.5	4.8479955687924
12	367	36.6	5.5034120594434
12	368	36.7	4.9728941358855
12	369	36.8	3.8479947076253
12	370	36.9	4.8985005124671
12	371	37	4.2283622851673
12	372	37.1	5.2873428659359
12	373	37.2	4.3687290092546
12	374	37.3	6.4399120473826
12	375	37.4	5.8071571826616
12	376	37.5	1.3266113164966
12	377	37.6	1.7849283771336
12	378	37.7	3.2674501426532
12	379	37.8	0.973
12	380	37.9	1.9031136129171
12	381	38	0.973
12	382	38.1	2.2977330349439
12	383	38.2	2.2284475552202
12	384	38.3	0.973
12	385	38.4	3.0653696927773
12	386	38.5	1.2181147111128
12	387	38.6	1.7366481967805
12	388	38.7	0.973
12	389	38.8	1.5781393948905
12	390	38.9	2.0806131795898
12	391	39	2.0845545723196
12	392	39.1	0.973
12	393	39.2	1.808468679682
12	394	39.3	1.9869365031838
12	395	39.4	1.7414267520344
12	396	39.5	0.973
12	397	39.6	4.0200232029755
12	398	39.7	1.227588832275
12	399	39.8	1.3889467826887
12	400	39.9	0.973
12	401	40	1.5713534304291
12	402	40.1	1.768594117959
12	403	40.2	3.1485734539325
12	404	40.3	0.973
12	405	40.4	0.973
12	406	40.5	3.4176707896799
12	407	40.6	0.973
12	408	40.7	0.973
12	409	40.8	0.973
12	410	40.9	0.973
12	411	41	0.973
12	412	41.1	0.973
12	413	41.2	0.973
12	414	41.3	0.973
12	415	41.4	0.973
12	416	41.5	0.973
12	417	41.6	0.973
12	418	41.7	0.973
12	419	41.8	0.973
12	420	41.9	0.973
12	421	42	0.973
12	422	42.1	0.973
12	423	42.2	0.973
12	424	42.3	0.973
12	425	42.4	0.973
12	426	42.5	0.973
12	427	42.6	0.973
12	428	42.7	3.6076443157459
12	429	42.8	3.7841568925001
12	430	42.9	3.9608176282935
12	431	43	4.137636265033
12	432	43.1	4.3146225446259
12	433	43.2	4.4917862089793
12	434	43.3	4.6691370000004
12	435	43.4	4.8466846595964
12	436	43.5	5.0244389296745
12	437	43.6	3.4948413513286
12	438	43.7	4.9303022969689
12	439	43.8	4.07063657184
12	440	43.9	4.8965126476639
12	441	44	4.6959557306372
12	442	44.1	3.6915113546159
12	443	44.2	4.3978086908253
12	444	44.3	5.3477655764704
12	445	44.4	5.6500327489085
12	446	44.5	4.084892238636
12	447	44.6	4.0355387146323
12	448	44.7	4.8838181108833
12	449	44.8	4.9631981416115
12	450	44.9	3.1376155670692
12	451	45	2.4563708416095
12	452	45.1	1.750478338137
12	453	45.2	0.973
12	454	45.3	1.3857209808138
12	455	45.4	2.424619320397
12	456	45.5	2.2217559572445
12	457	45.6	1.7529456139843
12	458	45.7	0.973
12	459	45.8	2.4509086279234
12	460	45.9	2.1219513056596
12	461	46	0.973
12	462	46.1	0.973
12	463	46.2	0.973
12	464	46.3	0.973
12	465	46.4	0.973
12	466	46.5	0.973
12	467	46.6	0.973
12	468	46.7	0.973
12	469	46.8	0.973
12	470	46.9	0.973
12	471	47	0.973
12	472	47.1	0.973
12	473	47.2	0.973
12	474	47.3	0.973
12	475	47.4	0.973
12	476	47.5	0.973
12	477	47.6	0.973
12	478	47.7	0.973
12	479	47.8	0.973
12	480	47.9	0.973
12	481	48	3.4928189694538
12	482	48.1	3.6692403372376
12	483	48.2	3.8458035225951
12	484	48.3	4.0225182674336
12	485	48.4	4.1993943136603
12	486	48.5	4.3764414031822
12	487	48.6	4.5536692779066
12	488	48.7	4.7310876797406
12	489	48.8	4.9087063505914
12	490	48.9	4.9510937723381
12	491	49	5.2002912016888
12	492	49.1	3.6482011194821
12	493	49.2	3.4698326198192
12	494	49.3	4.6429958578359
12	495	49.4	4.9526702640138
12	496	49.5	5.4493741156599
12	497	49.6	4.8359326757954
12	498	49.7	5.6374022334637
12	499	49.8	6.3520230735092
12	500	49.9	6.1019209233429
12	501	50	4.8098609995613
12	502	50.1	3.5927311179438
12	503	50.2	1.2275784859968
12	504	50.3	3.907118198308
12	505	50.4	0.973
12	506	50.5	3.1555598208841
12	507	50.6	0.973
12	508	50.7	1.2469117085295
12	509	50.8	3.2905764962383
12	510	50.9	0.973
12	511	51	3.0012370618957
12	512	51.1	0.973
12	513	51.2	2.4998965224889
12	514	51.3	0.973
12	515	51.4	2.5345623714305
12	516	51.5	1.8819007115629
12	517	51.6	0.973
12	518	51.7	1.3970399120201
12	519	51.8	3.3040494375391
12	520	51.9	0.973
12	521	52	2.2079387719496
12	522	52.1	1.7761232694743
12	523	52.2	2.3150401835738
12	524	52.3	0.973
12	525	52.4	0.973
12	526	52.5	3.0166861283481
12	527	52.6	0.973
12	528	52.7	0.973
12	529	52.8	1.5256592804052
12	530	52.9	2.0070537318055
12	531	53	0.973
12	532	53.1	2.0746272009534
12	533	53.2	3.1479799524789
12	534	53.3	0.973
12	535	53.4	2.8820138635972
12	536	53.5	0.973
12	537	53.6	0.973
12	538	53.7	2.6902571728833
12	539	53.8	0.973
12	540	53.9	3.113308081275
12	541	54	2.0634198418606
12	542	54.1	0.973
12	543	54.2	1.4550409808868
12	544	54.3	1.7836597909951
12	545	54.4	0.973
12	546	54.5	3.1865825834894
12	547	54.6	0.973
12	548	54.7	1.7128074541973
12	549	54.8	2.5300109065984
12	550	54.9	0.973
12	551	55	1.557599893611
12	552	55.1	1.8126397995551
12	553	55.2	1.7003655463809
12	554	55.3	0.973
12	555	55.4	2.9682676112769
12	556	55.5	0.973
12	557	55.6	3.6579792761696
12	558	55.7	0.973
12	559	55.8	1.7010134063424
12	560	55.9	0.973
12	561	56	0.973
12	562	56.1	1.6970649231596
12	563	56.2	3.4692131244105
12	564	56.3	0.973
12	565	56.4	2.4091953126555
12	566	56.5	1.5914799297845
12	567	56.6	0.973
12	568	56.7	1.5256210808454
12	569	56.8	1.3092819604733
12	570	56.9	3.263273437786
12	571	57	0.973
12	572	57.1	0.973
12	573	57.2	2.1560432174695
12	574	57.3	2.342865497565
12	575	57.4	0.973
12	576	57.5	1.5459473787596
12	577	57.6	2.1524328932931
12	578	57.7	1.4865479952507
12	579	57.8	1.4148578608028
12	580	57.9	0.973
12	581	58	2.1606568819674
12	582	58.1	1.7105631875027
12	583	58.2	2.615575460801
12	584	58.3	0.973
12	585	58.4	3.2727220493111
12	586	58.5	0.973
12	587	58.6	1.4725318562645
12	588	58.7	3.5212899426954
12	589	58.8	1.7057039472843
12	590	58.9	0.973
12	591	59	1.9971736227104
12	592	59.1	1.3378282014939
12	593	59.2	1.6619431333411
12	594	59.3	3.1531009963139
12	595	59.4	0.973
12	596	59.5	2.9273063577402
12	597	59.6	0.973
12	598	59.7	2.4880781227157
12	599	59.8	0.973
12	600	59.9	2.6681054304152
12	601	60	2.0461476265978
12	602	60.1	1.3588378766847
12	603	60.2	2.4294783031993
12	604	60.3	0.973
12	605	60.4	3.3902648077447
12	606	60.5	0.973
12	607	60.6	0.973
12	608	60.7	1.488817865463
12	609	60.8	3.732831121014
12	610	60.9	0.973
12	611	61	0.973
12	612	61.1	0.973
12	613	61.2	0.973
12	614	61.3	0.973
12	615	61.4	0.973
12	616	61.5	0.973
12	617	61.6	0.973
12	618	61.7	0.973
12	619	61.8	0.973
12	620	61.9	0.973
12	621	62	0.973
12	622	62.1	0.973
12	623	62.2	0.973
12	624	62.3	0.973
12	625	62.4	0.973
12	626	62.5	0.973
12	627	62.6	0.973
12	628	62.7	0.973
12	629	62.8	3.6341284706449
12	630	62.9	3.8106626636042
12	631	63	3.9873464777901
12	632	63.1	4.1641896551099
12	633	63.2	4.3412019374706
12	634	63.3	4.5183930667796
12	635	63.4	4.6957727849439
12	636	63.5	4.8733508338706
12	637	63.6	5.0511369554671
12	638	63.7	4.0717620619198
12	639	63.8	5.0778931655618
12	640	63.9	3.6322530119705
12	641	64	4.1054221936175
12	642	64.1	5.0200671285709
12	643	64.2	5.0434751168038
12	644	64.3	4.6827921120544
12	645	64.4	5.4167055160415
12	646	64.5	4.7817096056744
12	647	64.6	4.3894804103045
12	648	64.7	6.4588236120991
12	649	64.8	6.4449636191294
12	650	64.9	3.3759802893822
12	651	65	0.973
12	652	65.1	0.973
12	653	65.2	3.7626620160755
12	654	65.3	0.973
12	655	65.4	3.5656775435718
12	656	65.5	1.3530086954842
12	657	65.6	1.3463624861449
12	658	65.7	0.973
12	659	65.8	1.8073208592269
12	660	65.9	0.973
12	661	66	2.4652268510312
12	662	66.1	0.973
12	663	66.2	1.500701353563
12	664	66.3	1.8167117691209
12	665	66.4	0.973
12	666	66.5	2.2052485786321
12	667	66.6	1.2744995790412
12	668	66.7	2.0664296633297
12	669	66.8	2.9505968528813
12	670	66.9	0.973
12	671	67	1.2345319003388
12	672	67.1	1.4706579951833
12	673	67.2	0.973
12	674	67.3	2.6547046469567
12	675	67.4	0.973
12	676	67.5	2.9745115018924
12	677	67.6	0.973
12	678	67.7	2.7015441901458
12	679	67.8	0.973
12	680	67.9	3.133313265257
12	681	68	0.973
12	682	68.1	2.2611019934225
12	683	68.2	1.5465341453136
12	684	68.3	2.4388662785796
12	685	68.4	1.5210492845142
12	686	68.5	2.113982303977
12	687	68.6	0.973
12	688	68.7	3.602083365067
12	689	68.8	0.973
12	690	68.9	1.2676544265581
12	691	69	0.973
12	692	69.1	1.4971792711409
12	693	69.2	0.973
12	694	69.3	2.5616848555112
12	695	69.4	2.955172466893
12	696	69.5	1.6252678724684
12	697	69.6	0.973
12	698	69.7	2.0022433453115
12	699	69.8	2.0459019282478
12	700	69.9	2.3018294529542
12	701	70	0.973
12	702	70.1	3.6716985599524
12	703	70.2	0.973
12	704	70.3	0.973
12	705	70.4	2.530951549047
12	706	70.5	2.645383888422
12	707	70.6	1.5374581061848
12	708	70.7	1.643686629627
12	709	70.8	0.973
12	710	70.9	0.973
12	711	71	3.246163561768
12	712	71.1	0.973
12	713	71.2	3.6566668937115
12	714	71.3	1.6364951657696
12	715	71.4	0.973
12	716	71.5	1.2384496140526
12	717	71.6	2.5399708647184
12	718	71.7	0.973
12	719	71.8	2.138325188853
12	720	71.9	0.973
12	721	72	1.4155680328895
12	722	72.1	3.5369723528931
12	723	72.2	0.973
12	724	72.3	0.973
12	725	72.4	3.1463071803973
12	726	72.5	0.973
12	727	72.6	3.6174681474692
12	728	72.7	0.973
12	729	72.8	1.9978651610644
12	730	72.9	1.7632075685013
12	731	73	1.5273616408582
12	732	73.1	0.973
12	733	73.2	1.3229814654406
12	734	73.3	1.4871912087487
12	735	73.4	1.9588328961175
12	736	73.5	1.710677962147
12	737	73.6	2.3714179123727
12	738	73.7	1.2182732694145
12	739	73.8	1.7109023138359
12	740	73.9	0.973
12	741	74	0.973
12	742	74.1	0.973
12	743	74.2	3.115893660483
12	744	74.3	1.3144073342621
12	745	74.4	0.973
12	746	74.5	2.3268730755284
12	747	74.6	2.4308389871213
12	748	74.7	0.973
12	749	74.8	1.4035936622707
12	750	74.9	2.067003810326
12	751	75	2.2479778545367
12	753	75.1	0.973
12	754	75.2	0.973
12	755	75.3	0.973
12	756	75.4	0.973
12	757	75.5	0.973
12	758	75.6	0.973
12	759	75.7	0.973
12	760	75.8	0.973
12	761	75.9	0.973
12	762	76	0.973
12	763	76.1	0.973
12	764	76.2	0.973
12	765	76.3	0.973
12	766	76.4	0.973
12	767	76.5	0.973
12	768	76.6	0.973
12	769	76.7	0.973
12	770	76.8	0.973
12	771	76.9	0.973
12	772	77	0.973
12	773	77.1	0.973
12	774	77.2	0.973
12	775	77.3	0.973
12	776	77.4	0.973
12	777	77.5	0.973
12	778	77.6	0.973
12	779	77.7	0.973
12	780	77.8	0.973
12	781	77.9	0.973
12	782	78	0.973
12	783	78.1	0.973
12	784	78.2	0.973
12	785	78.3	0.973
12	786	78.4	0.973
12	787	78.5	0.973
12	788	78.6	0.973
12	789	78.7	0.973
12	790	78.8	0.973
12	791	78.9	0.973
12	792	79	0.973
12	793	79.1	0.973
12	794	79.2	0.973
12	795	79.3	0.973
12	796	79.4	0.973
12	797	79.5	0.973
12	798	79.6	0.973
12	799	79.7	0.973
12	800	79.8	0.973
12	801	79.9	0.973
12	802	80	0.973
12	803	80.1	0.973
12	804	80.2	0.973
12	805	80.3	0.973
12	806	80.4	0.973
12	807	80.5	0.973
12	808	80.6	0.973
12	809	80.7	0.973
12	810	80.8	0.973
12	811	80.9	0.973
12	812	81	0.973
12	813	81.1	0.973
12	814	81.2	0.973
12	815	81.3	0.973
12	816	81.4	0.973
12	817	81.5	0.973
12	818	81.6	0.973
12	819	81.7	0.973
12	820	81.8	0.973
12	821	81.9	0.973
12	822	82	0.973
12	823	82.1	0.973
12	824	82.2	0.973
12	825	82.3	0.973
12	826	82.4	0.973
12	827	82.5	0.973
12	828	82.6	0.973
12	829	82.7	0.973
12	830	82.8	0.973
12	831	82.9	0.973
12	832	83	0.973
12	833	83.1	0.973
12	834	83.2	0.973
12	835	83.3	0.973
12	836	83.4	0.973
12	837	83.5	0.973
12	838	83.6	0.973
12	839	83.7	0.973
12	840	83.8	0.973
12	841	83.9	0.973
12	842	84	0.973
12	843	84.1	0.973
12	844	84.2	0.973
12	845	84.3	0.973
12	846	84.4	0.973
12	847	84.5	0.973
12	848	84.6	0.973
12	849	84.7	0.973
12	850	84.8	0.973
12	851	84.9	0.973
12	852	85	0.973
12	853	85.1	0.973
12	854	85.2	0.973
12	855	85.3	0.973
12	856	85.4	0.973
12	857	85.5	0.973
12	858	85.6	0.973
12	859	85.7	0.973
12	860	85.8	0.973
12	861	85.9	0.973
12	862	86	0.973
12	863	86.1	0.973
12	864	86.2	0.973
12	865	86.3	0.973
12	866	86.4	0.973
12	867	86.5	0.973
12	868	86.6	0.973
12	877	86.7	0.973
12	878	86.8	0.973
12	879	86.9	0.973
12	880	87	0.973
12	881	87.1	0.973
12	882	87.2	0.973
12	883	87.3	0.973
12	884	87.4	0.973
12	885	87.5	0.973
12	886	87.6	0.973
12	887	87.7	0.973
12	888	87.8	0.973
12	889	87.9	0.973
12	890	88	0.973
12	891	88.1	0.973
12	892	88.2	0.973
12	893	88.3	0.973
12	894	88.4	0.973
12	895	88.5	0.973
12	896	88.6	0.973
12	897	88.7	0.973
12	898	88.8	0.973
12	899	88.9	0.973
12	900	89	0.973
12	901	89.1	0.973
12	902	89.2	0.973
12	903	89.3	0.973
12	904	89.4	0.973
12	905	89.5	0.973
12	906	89.6	0.973
12	907	89.7	0.973
12	908	89.8	0.973
12	909	89.9	0.973
12	910	90	0.973
12	911	90.1	0.973
12	912	90.2	0.973
12	913	90.3	0.973
12	914	90.4	0.973
12	915	90.5	0.973
12	916	90.6	0.973
12	917	90.7	0.973
12	918	90.8	0.973
12	919	90.9	0.973
12	920	91	0.973
12	921	91.1	0.973
12	922	91.2	0.973
12	923	91.3	0.973
12	924	91.4	0.973
12	925	91.5	0.973
12	926	91.6	0.973
12	927	91.7	0.973
12	928	91.8	0.973
12	929	91.9	0.973
12	930	92	0.973
12	931	92.1	0.973
12	932	92.2	0.973
12	933	92.3	0.973
12	934	92.4	0.973
12	935	92.5	0.973
12	936	92.6	0.973
12	937	92.7	0.973
12	938	92.8	0.973
12	939	92.9	0.973
12	940	93	0.973
12	941	93.1	0.973
12	942	93.2	0.973
12	943	93.3	0.973
12	944	93.4	0.973
12	945	93.5	0.973
12	946	93.6	0.973
12	947	93.7	0.973
12	948	93.8	0.973
12	949	93.9	0.973
12	950	94	0.973
12	951	94.1	0.973
12	952	94.2	0.973
12	953	94.3	0.973
12	954	94.4	0.973
12	955	94.5	0.973
12	956	94.6	0.973
12	957	94.7	0.973
12	958	94.8	0.973
12	959	94.9	0.973
12	960	95	0.973
12	961	95.1	0.973
12	962	95.2	0.973
12	963	95.3	0.973
12	964	95.4	0.973
12	965	95.5	0.973
12	966	95.6	0.973
12	967	95.7	0.973
12	968	95.8	0.973
12	969	95.9	0.973
12	970	96	0.973
12	971	96.1	0.973
12	972	96.2	0.973
12	973	96.3	0.973
12	974	96.4	0.973
12	975	96.5	0.973
12	976	96.6	0.973
12	977	96.7	0.973
12	978	96.8	0.973
12	979	96.9	0.973
12	980	97	0.973
12	981	97.1	0.973
12	982	97.2	0.973
12	983	97.3	0.973
12	984	97.4	0.973
12	985	97.5	0.973
12	986	97.6	0.973
12	987	97.7	0.973
12	988	97.8	0.973
12	989	97.9	0.973
12	990	98	0.973
12	991	98.1	0.973
12	992	98.2	0.973
12	993	98.3	0.973
12	994	98.4	0.973
12	995	98.5	0.973
12	996	98.6	0.973
12	997	98.7	0.973
12	998	98.8	0.973
12	999	98.9	0.973
12	1000	99	0.973
12	1001	99.1	0.973
12	1002	99.2	0.973
12	1003	99.3	0.973
12	1004	99.4	0.973
12	1005	99.5	0.973
12	1006	99.6	0.973
12	1007	99.7	0.973
12	1008	99.8	0.973
12	1009	99.9	0.973
12	1010	100	0.973
12	1011	100.1	0.973
12	1012	100.2	0.973
12	1013	100.3	0.973
12	1014	100.4	0.973