file 27386674 1467879409                                        
version 2
run nodebug-0-20160707-10:14:46-26241
attr configname nodebug
attr datetime 20160707-10:14:46
attr experiment nodebug
attr inifile omnetpp.ini
attr iterationvars ""
attr iterationvars2 $repetition=0
attr measurement ""
attr network RSUExampleScenario
attr processid 26241
attr repetition 0
attr replication #0
attr resultdir results
attr runnumber 0
attr seedset 0

vector 8  RSUExampleScenario.node[0].veinsmobility  posx  ETV
vector 9  RSUExampleScenario.node[0].veinsmobility  posy  ETV
vector 10  RSUExampleScenario.node[0].veinsmobility  speed  ETV
vector 11  RSUExampleScenario.node[0].veinsmobility  acceleration  ETV
vector 12  RSUExampleScenario.node[0].veinsmobility  co2emission  ETV
vector 17  RSUExampleScenario.node[1].veinsmobility  posx  ETV
vector 18  RSUExampleScenario.node[1].veinsmobility  posy  ETV
vector 19  RSUExampleScenario.node[1].veinsmobility  speed  ETV
vector 20  RSUExampleScenario.node[1].veinsmobility  acceleration  ETV
vector 21  RSUExampleScenario.node[1].veinsmobility  co2emission  ETV
vector 26  RSUExampleScenario.node[2].veinsmobility  posx  ETV
vector 27  RSUExampleScenario.node[2].veinsmobility  posy  ETV
vector 28  RSUExampleScenario.node[2].veinsmobility  speed  ETV
vector 29  RSUExampleScenario.node[2].veinsmobility  acceleration  ETV
vector 30  RSUExampleScenario.node[2].veinsmobility  co2emission  ETV
vector 35  RSUExampleScenario.node[3].veinsmobility  posx  ETV
vector 36  RSUExampleScenario.node[3].veinsmobility  posy  ETV
vector 37  RSUExampleScenario.node[3].veinsmobility  speed  ETV
vector 38  RSUExampleScenario.node[3].veinsmobility  acceleration  ETV
vector 39  RSUExampleScenario.node[3].veinsmobility  co2emission  ETV
vector 44  RSUExampleScenario.node[4].veinsmobility  posx  ETV
vector 45  RSUExampleScenario.node[4].veinsmobility  posy  ETV
vector 46  RSUExampleScenario.node[4].veinsmobility  speed  ETV
vector 47  RSUExampleScenario.node[4].veinsmobility  acceleration  ETV
vector 48  RSUExampleScenario.node[4].veinsmobility  co2emission  ETV
vector 53  RSUExampleScenario.node[5].veinsmobility  posx  ETV
vector 54  RSUExampleScenario.node[5].veinsmobility  posy  ETV
vector 55  RSUExampleScenario.node[5].veinsmobility  speed  ETV
vector 56  RSUExampleScenario.node[5].veinsmobility  acceleration  ETV
vector 57  RSUExampleScenario.node[5].veinsmobility  co2emission  ETV
vector 62  RSUExampleScenario.node[6].veinsmobility  posx  ETV
vector 63  RSUExampleScenario.node[6].veinsmobility  posy  ETV
vector 64  RSUExampleScenario.node[6].veinsmobility  speed  ETV
vector 65  RSUExampleScenario.node[6].veinsmobility  acceleration  ETV
vector 66  RSUExampleScenario.node[6].veinsmobility  co2emission  ETV
vector 71  RSUExampleScenario.node[7].veinsmobility  posx  ETV
vector 72  RSUExampleScenario.node[7].veinsmobility  posy  ETV
vector 73  RSUExampleScenario.node[7].veinsmobility  speed  ETV
vector 74  RSUExampleScenario.node[7].veinsmobility  acceleration  ETV
vector 75  RSUExampleScenario.node[7].veinsmobility  co2emission  ETV
vector 80  RSUExampleScenario.node[8].veinsmobility  posx  ETV
vector 81  RSUExampleScenario.node[8].veinsmobility  posy  ETV
vector 82  RSUExampleScenario.node[8].veinsmobility  speed  ETV
vector 83  RSUExampleScenario.node[8].veinsmobility  acceleration  ETV
vector 84  RSUExampleScenario.node[8].veinsmobility  co2emission  ETV
vector 89  RSUExampleScenario.node[9].veinsmobility  posx  ETV
vector 90  RSUExampleScenario.node[9].veinsmobility  posy  ETV
vector 91  RSUExampleScenario.node[9].veinsmobility  speed  ETV
vector 92  RSUExampleScenario.node[9].veinsmobility  acceleration  ETV
vector 93  RSUExampleScenario.node[9].veinsmobility  co2emission  ETV
vector 98  RSUExampleScenario.node[10].veinsmobility  posx  ETV
vector 99  RSUExampleScenario.node[10].veinsmobility  posy  ETV
vector 100  RSUExampleScenario.node[10].veinsmobility  speed  ETV
vector 101  RSUExampleScenario.node[10].veinsmobility  acceleration  ETV
vector 102  RSUExampleScenario.node[10].veinsmobility  co2emission  ETV
vector 107  RSUExampleScenario.node[11].veinsmobility  posx  ETV
vector 108  RSUExampleScenario.node[11].veinsmobility  posy  ETV
vector 109  RSUExampleScenario.node[11].veinsmobility  speed  ETV
vector 110  RSUExampleScenario.node[11].veinsmobility  acceleration  ETV
vector 111  RSUExampleScenario.node[11].veinsmobility  co2emission  ETV
vector 116  RSUExampleScenario.node[12].veinsmobility  posx  ETV
vector 117  RSUExampleScenario.node[12].veinsmobility  posy  ETV
vector 118  RSUExampleScenario.node[12].veinsmobility  speed  ETV
vector 119  RSUExampleScenario.node[12].veinsmobility  acceleration  ETV
vector 120  RSUExampleScenario.node[12].veinsmobility  co2emission  ETV
vector 125  RSUExampleScenario.node[13].veinsmobility  posx  ETV
vector 126  RSUExampleScenario.node[13].veinsmobility  posy  ETV
vector 127  RSUExampleScenario.node[13].veinsmobility  speed  ETV
vector 128  RSUExampleScenario.node[13].veinsmobility  acceleration  ETV
vector 129  RSUExampleScenario.node[13].veinsmobility  co2emission  ETV
vector 134  RSUExampleScenario.node[14].veinsmobility  posx  ETV
vector 135  RSUExampleScenario.node[14].veinsmobility  posy  ETV
vector 136  RSUExampleScenario.node[14].veinsmobility  speed  ETV
vector 137  RSUExampleScenario.node[14].veinsmobility  acceleration  ETV
vector 138  RSUExampleScenario.node[14].veinsmobility  co2emission  ETV
vector 143  RSUExampleScenario.node[15].veinsmobility  posx  ETV
vector 144  RSUExampleScenario.node[15].veinsmobility  posy  ETV
vector 145  RSUExampleScenario.node[15].veinsmobility  speed  ETV
vector 146  RSUExampleScenario.node[15].veinsmobility  acceleration  ETV
vector 147  RSUExampleScenario.node[15].veinsmobility  co2emission  ETV
vector 152  RSUExampleScenario.node[16].veinsmobility  posx  ETV
vector 153  RSUExampleScenario.node[16].veinsmobility  posy  ETV
vector 154  RSUExampleScenario.node[16].veinsmobility  speed  ETV
vector 155  RSUExampleScenario.node[16].veinsmobility  acceleration  ETV
vector 156  RSUExampleScenario.node[16].veinsmobility  co2emission  ETV
vector 161  RSUExampleScenario.node[17].veinsmobility  posx  ETV
vector 162  RSUExampleScenario.node[17].veinsmobility  posy  ETV
vector 163  RSUExampleScenario.node[17].veinsmobility  speed  ETV
vector 164  RSUExampleScenario.node[17].veinsmobility  acceleration  ETV
vector 165  RSUExampleScenario.node[17].veinsmobility  co2emission  ETV
vector 170  RSUExampleScenario.node[18].veinsmobility  posx  ETV
vector 171  RSUExampleScenario.node[18].veinsmobility  posy  ETV
vector 172  RSUExampleScenario.node[18].veinsmobility  speed  ETV
vector 173  RSUExampleScenario.node[18].veinsmobility  acceleration  ETV
vector 174  RSUExampleScenario.node[18].veinsmobility  co2emission  ETV
vector 179  RSUExampleScenario.node[19].veinsmobility  posx  ETV
vector 180  RSUExampleScenario.node[19].veinsmobility  posy  ETV
vector 181  RSUExampleScenario.node[19].veinsmobility  speed  ETV
vector 182  RSUExampleScenario.node[19].veinsmobility  acceleration  ETV
vector 183  RSUExampleScenario.node[19].veinsmobility  co2emission  ETV
vector 188  RSUExampleScenario.node[20].veinsmobility  posx  ETV
vector 189  RSUExampleScenario.node[20].veinsmobility  posy  ETV
vector 190  RSUExampleScenario.node[20].veinsmobility  speed  ETV
vector 191  RSUExampleScenario.node[20].veinsmobility  acceleration  ETV
vector 192  RSUExampleScenario.node[20].veinsmobility  co2emission  ETV
vector 197  RSUExampleScenario.node[21].veinsmobility  posx  ETV
vector 198  RSUExampleScenario.node[21].veinsmobility  posy  ETV
vector 199  RSUExampleScenario.node[21].veinsmobility  speed  ETV
vector 200  RSUExampleScenario.node[21].veinsmobility  acceleration  ETV
vector 201  RSUExampleScenario.node[21].veinsmobility  co2emission  ETV
vector 206  RSUExampleScenario.node[22].veinsmobility  posx  ETV
vector 207  RSUExampleScenario.node[22].veinsmobility  posy  ETV
vector 208  RSUExampleScenario.node[22].veinsmobility  speed  ETV
vector 209  RSUExampleScenario.node[22].veinsmobility  acceleration  ETV
vector 210  RSUExampleScenario.node[22].veinsmobility  co2emission  ETV
vector 215  RSUExampleScenario.node[23].veinsmobility  posx  ETV
vector 216  RSUExampleScenario.node[23].veinsmobility  posy  ETV
vector 217  RSUExampleScenario.node[23].veinsmobility  speed  ETV
vector 218  RSUExampleScenario.node[23].veinsmobility  acceleration  ETV
vector 219  RSUExampleScenario.node[23].veinsmobility  co2emission  ETV
vector 224  RSUExampleScenario.node[24].veinsmobility  posx  ETV
vector 225  RSUExampleScenario.node[24].veinsmobility  posy  ETV
vector 226  RSUExampleScenario.node[24].veinsmobility  speed  ETV
vector 227  RSUExampleScenario.node[24].veinsmobility  acceleration  ETV
vector 228  RSUExampleScenario.node[24].veinsmobility  co2emission  ETV
vector 233  RSUExampleScenario.node[25].veinsmobility  posx  ETV
vector 234  RSUExampleScenario.node[25].veinsmobility  posy  ETV
vector 235  RSUExampleScenario.node[25].veinsmobility  speed  ETV
vector 236  RSUExampleScenario.node[25].veinsmobility  acceleration  ETV
vector 237  RSUExampleScenario.node[25].veinsmobility  co2emission  ETV
vector 242  RSUExampleScenario.node[26].veinsmobility  posx  ETV
vector 243  RSUExampleScenario.node[26].veinsmobility  posy  ETV
vector 244  RSUExampleScenario.node[26].veinsmobility  speed  ETV
vector 245  RSUExampleScenario.node[26].veinsmobility  acceleration  ETV
vector 246  RSUExampleScenario.node[26].veinsmobility  co2emission  ETV
vector 251  RSUExampleScenario.node[27].veinsmobility  posx  ETV
vector 252  RSUExampleScenario.node[27].veinsmobility  posy  ETV
vector 253  RSUExampleScenario.node[27].veinsmobility  speed  ETV
vector 254  RSUExampleScenario.node[27].veinsmobility  acceleration  ETV
vector 255  RSUExampleScenario.node[27].veinsmobility  co2emission  ETV
vector 260  RSUExampleScenario.node[28].veinsmobility  posx  ETV
vector 261  RSUExampleScenario.node[28].veinsmobility  posy  ETV
vector 262  RSUExampleScenario.node[28].veinsmobility  speed  ETV
vector 263  RSUExampleScenario.node[28].veinsmobility  acceleration  ETV
vector 264  RSUExampleScenario.node[28].veinsmobility  co2emission  ETV
vector 269  RSUExampleScenario.node[29].veinsmobility  posx  ETV
vector 270  RSUExampleScenario.node[29].veinsmobility  posy  ETV
vector 271  RSUExampleScenario.node[29].veinsmobility  speed  ETV
vector 272  RSUExampleScenario.node[29].veinsmobility  acceleration  ETV
vector 273  RSUExampleScenario.node[29].veinsmobility  co2emission  ETV
vector 278  RSUExampleScenario.node[30].veinsmobility  posx  ETV
vector 279  RSUExampleScenario.node[30].veinsmobility  posy  ETV
vector 280  RSUExampleScenario.node[30].veinsmobility  speed  ETV
vector 281  RSUExampleScenario.node[30].veinsmobility  acceleration  ETV
vector 282  RSUExampleScenario.node[30].veinsmobility  co2emission  ETV
vector 287  RSUExampleScenario.node[31].veinsmobility  posx  ETV
vector 288  RSUExampleScenario.node[31].veinsmobility  posy  ETV
vector 289  RSUExampleScenario.node[31].veinsmobility  speed  ETV
vector 290  RSUExampleScenario.node[31].veinsmobility  acceleration  ETV
vector 291  RSUExampleScenario.node[31].veinsmobility  co2emission  ETV
vector 296  RSUExampleScenario.node[32].veinsmobility  posx  ETV
vector 297  RSUExampleScenario.node[32].veinsmobility  posy  ETV
vector 298  RSUExampleScenario.node[32].veinsmobility  speed  ETV
vector 299  RSUExampleScenario.node[32].veinsmobility  acceleration  ETV
vector 300  RSUExampleScenario.node[32].veinsmobility  co2emission  ETV
vector 305  RSUExampleScenario.node[33].veinsmobility  posx  ETV
vector 306  RSUExampleScenario.node[33].veinsmobility  posy  ETV
vector 307  RSUExampleScenario.node[33].veinsmobility  speed  ETV
vector 308  RSUExampleScenario.node[33].veinsmobility  acceleration  ETV
vector 309  RSUExampleScenario.node[33].veinsmobility  co2emission  ETV
vector 314  RSUExampleScenario.node[34].veinsmobility  posx  ETV
vector 315  RSUExampleScenario.node[34].veinsmobility  posy  ETV
vector 316  RSUExampleScenario.node[34].veinsmobility  speed  ETV
vector 317  RSUExampleScenario.node[34].veinsmobility  acceleration  ETV
vector 318  RSUExampleScenario.node[34].veinsmobility  co2emission  ETV
vector 323  RSUExampleScenario.node[35].veinsmobility  posx  ETV
vector 324  RSUExampleScenario.node[35].veinsmobility  posy  ETV
vector 325  RSUExampleScenario.node[35].veinsmobility  speed  ETV
vector 326  RSUExampleScenario.node[35].veinsmobility  acceleration  ETV
vector 327  RSUExampleScenario.node[35].veinsmobility  co2emission  ETV
vector 332  RSUExampleScenario.node[36].veinsmobility  posx  ETV
vector 333  RSUExampleScenario.node[36].veinsmobility  posy  ETV
vector 334  RSUExampleScenario.node[36].veinsmobility  speed  ETV
vector 335  RSUExampleScenario.node[36].veinsmobility  acceleration  ETV
vector 336  RSUExampleScenario.node[36].veinsmobility  co2emission  ETV
vector 341  RSUExampleScenario.node[37].veinsmobility  posx  ETV
vector 342  RSUExampleScenario.node[37].veinsmobility  posy  ETV
vector 343  RSUExampleScenario.node[37].veinsmobility  speed  ETV
vector 344  RSUExampleScenario.node[37].veinsmobility  acceleration  ETV
vector 345  RSUExampleScenario.node[37].veinsmobility  co2emission  ETV
vector 350  RSUExampleScenario.node[38].veinsmobility  posx  ETV
vector 351  RSUExampleScenario.node[38].veinsmobility  posy  ETV
vector 352  RSUExampleScenario.node[38].veinsmobility  speed  ETV
vector 353  RSUExampleScenario.node[38].veinsmobility  acceleration  ETV
vector 354  RSUExampleScenario.node[38].veinsmobility  co2emission  ETV
vector 359  RSUExampleScenario.node[39].veinsmobility  posx  ETV
vector 360  RSUExampleScenario.node[39].veinsmobility  posy  ETV
vector 361  RSUExampleScenario.node[39].veinsmobility  speed  ETV
vector 362  RSUExampleScenario.node[39].veinsmobility  acceleration  ETV
vector 363  RSUExampleScenario.node[39].veinsmobility  co2emission  ETV
vector 368  RSUExampleScenario.node[40].veinsmobility  posx  ETV
vector 369  RSUExampleScenario.node[40].veinsmobility  posy  ETV
vector 370  RSUExampleScenario.node[40].veinsmobility  speed  ETV
vector 371  RSUExampleScenario.node[40].veinsmobility  acceleration  ETV
vector 372  RSUExampleScenario.node[40].veinsmobility  co2emission  ETV
vector 377  RSUExampleScenario.node[41].veinsmobility  posx  ETV
vector 378  RSUExampleScenario.node[41].veinsmobility  posy  ETV
vector 379  RSUExampleScenario.node[41].veinsmobility  speed  ETV
vector 380  RSUExampleScenario.node[41].veinsmobility  acceleration  ETV
vector 381  RSUExampleScenario.node[41].veinsmobility  co2emission  ETV
vector 386  RSUExampleScenario.node[42].veinsmobility  posx  ETV
vector 387  RSUExampleScenario.node[42].veinsmobility  posy  ETV
vector 388  RSUExampleScenario.node[42].veinsmobility  speed  ETV
vector 389  RSUExampleScenario.node[42].veinsmobility  acceleration  ETV
vector 390  RSUExampleScenario.node[42].veinsmobility  co2emission  ETV
vector 395  RSUExampleScenario.node[43].veinsmobility  posx  ETV
vector 396  RSUExampleScenario.node[43].veinsmobility  posy  ETV
vector 397  RSUExampleScenario.node[43].veinsmobility  speed  ETV
vector 398  RSUExampleScenario.node[43].veinsmobility  acceleration  ETV
vector 399  RSUExampleScenario.node[43].veinsmobility  co2emission  ETV
vector 404  RSUExampleScenario.node[44].veinsmobility  posx  ETV
vector 405  RSUExampleScenario.node[44].veinsmobility  posy  ETV
vector 406  RSUExampleScenario.node[44].veinsmobility  speed  ETV
vector 407  RSUExampleScenario.node[44].veinsmobility  acceleration  ETV
vector 408  RSUExampleScenario.node[44].veinsmobility  co2emission  ETV
vector 413  RSUExampleScenario.node[45].veinsmobility  posx  ETV
vector 414  RSUExampleScenario.node[45].veinsmobility  posy  ETV
vector 415  RSUExampleScenario.node[45].veinsmobility  speed  ETV
vector 416  RSUExampleScenario.node[45].veinsmobility  acceleration  ETV
vector 417  RSUExampleScenario.node[45].veinsmobility  co2emission  ETV
vector 422  RSUExampleScenario.node[46].veinsmobility  posx  ETV
vector 423  RSUExampleScenario.node[46].veinsmobility  posy  ETV
vector 424  RSUExampleScenario.node[46].veinsmobility  speed  ETV
vector 425  RSUExampleScenario.node[46].veinsmobility  acceleration  ETV
vector 426  RSUExampleScenario.node[46].veinsmobility  co2emission  ETV
vector 431  RSUExampleScenario.node[47].veinsmobility  posx  ETV
vector 432  RSUExampleScenario.node[47].veinsmobility  posy  ETV
vector 433  RSUExampleScenario.node[47].veinsmobility  speed  ETV
vector 434  RSUExampleScenario.node[47].veinsmobility  acceleration  ETV
vector 435  RSUExampleScenario.node[47].veinsmobility  co2emission  ETV
vector 440  RSUExampleScenario.node[48].veinsmobility  posx  ETV
vector 441  RSUExampleScenario.node[48].veinsmobility  posy  ETV
vector 442  RSUExampleScenario.node[48].veinsmobility  speed  ETV
vector 443  RSUExampleScenario.node[48].veinsmobility  acceleration  ETV
vector 444  RSUExampleScenario.node[48].veinsmobility  co2emission  ETV
vector 449  RSUExampleScenario.node[49].veinsmobility  posx  ETV
vector 450  RSUExampleScenario.node[49].veinsmobility  posy  ETV
vector 451  RSUExampleScenario.node[49].veinsmobility  speed  ETV
vector 452  RSUExampleScenario.node[49].veinsmobility  acceleration  ETV
vector 453  RSUExampleScenario.node[49].veinsmobility  co2emission  ETV
vector 458  RSUExampleScenario.node[50].veinsmobility  posx  ETV
vector 459  RSUExampleScenario.node[50].veinsmobility  posy  ETV
vector 460  RSUExampleScenario.node[50].veinsmobility  speed  ETV
vector 461  RSUExampleScenario.node[50].veinsmobility  acceleration  ETV
vector 462  RSUExampleScenario.node[50].veinsmobility  co2emission  ETV
vector 467  RSUExampleScenario.node[51].veinsmobility  posx  ETV
vector 468  RSUExampleScenario.node[51].veinsmobility  posy  ETV
vector 469  RSUExampleScenario.node[51].veinsmobility  speed  ETV
vector 470  RSUExampleScenario.node[51].veinsmobility  acceleration  ETV
vector 471  RSUExampleScenario.node[51].veinsmobility  co2emission  ETV
vector 476  RSUExampleScenario.node[52].veinsmobility  posx  ETV
vector 477  RSUExampleScenario.node[52].veinsmobility  posy  ETV
vector 478  RSUExampleScenario.node[52].veinsmobility  speed  ETV
vector 479  RSUExampleScenario.node[52].veinsmobility  acceleration  ETV
vector 480  RSUExampleScenario.node[52].veinsmobility  co2emission  ETV
vector 485  RSUExampleScenario.node[53].veinsmobility  posx  ETV
vector 486  RSUExampleScenario.node[53].veinsmobility  posy  ETV
vector 487  RSUExampleScenario.node[53].veinsmobility  speed  ETV
vector 488  RSUExampleScenario.node[53].veinsmobility  acceleration  ETV
vector 489  RSUExampleScenario.node[53].veinsmobility  co2emission  ETV
vector 494  RSUExampleScenario.node[54].veinsmobility  posx  ETV
vector 495  RSUExampleScenario.node[54].veinsmobility  posy  ETV
vector 496  RSUExampleScenario.node[54].veinsmobility  speed  ETV
vector 497  RSUExampleScenario.node[54].veinsmobility  acceleration  ETV
vector 498  RSUExampleScenario.node[54].veinsmobility  co2emission  ETV
vector 503  RSUExampleScenario.node[55].veinsmobility  posx  ETV
vector 504  RSUExampleScenario.node[55].veinsmobility  posy  ETV
vector 505  RSUExampleScenario.node[55].veinsmobility  speed  ETV
vector 506  RSUExampleScenario.node[55].veinsmobility  acceleration  ETV
vector 507  RSUExampleScenario.node[55].veinsmobility  co2emission  ETV
vector 512  RSUExampleScenario.node[56].veinsmobility  posx  ETV
vector 513  RSUExampleScenario.node[56].veinsmobility  posy  ETV
vector 514  RSUExampleScenario.node[56].veinsmobility  speed  ETV
vector 515  RSUExampleScenario.node[56].veinsmobility  acceleration  ETV
vector 516  RSUExampleScenario.node[56].veinsmobility  co2emission  ETV
vector 521  RSUExampleScenario.node[57].veinsmobility  posx  ETV
vector 522  RSUExampleScenario.node[57].veinsmobility  posy  ETV
vector 523  RSUExampleScenario.node[57].veinsmobility  speed  ETV
vector 524  RSUExampleScenario.node[57].veinsmobility  acceleration  ETV
vector 525  RSUExampleScenario.node[57].veinsmobility  co2emission  ETV
vector 530  RSUExampleScenario.node[58].veinsmobility  posx  ETV
vector 531  RSUExampleScenario.node[58].veinsmobility  posy  ETV
vector 532  RSUExampleScenario.node[58].veinsmobility  speed  ETV
vector 533  RSUExampleScenario.node[58].veinsmobility  acceleration  ETV
vector 534  RSUExampleScenario.node[58].veinsmobility  co2emission  ETV
vector 539  RSUExampleScenario.node[59].veinsmobility  posx  ETV
vector 540  RSUExampleScenario.node[59].veinsmobility  posy  ETV
vector 541  RSUExampleScenario.node[59].veinsmobility  speed  ETV
vector 542  RSUExampleScenario.node[59].veinsmobility  acceleration  ETV
vector 543  RSUExampleScenario.node[59].veinsmobility  co2emission  ETV
vector 548  RSUExampleScenario.node[60].veinsmobility  posx  ETV
vector 549  RSUExampleScenario.node[60].veinsmobility  posy  ETV
vector 550  RSUExampleScenario.node[60].veinsmobility  speed  ETV
vector 551  RSUExampleScenario.node[60].veinsmobility  acceleration  ETV
vector 552  RSUExampleScenario.node[60].veinsmobility  co2emission  ETV
vector 557  RSUExampleScenario.node[61].veinsmobility  posx  ETV
vector 558  RSUExampleScenario.node[61].veinsmobility  posy  ETV
vector 559  RSUExampleScenario.node[61].veinsmobility  speed  ETV
vector 560  RSUExampleScenario.node[61].veinsmobility  acceleration  ETV
vector 561  RSUExampleScenario.node[61].veinsmobility  co2emission  ETV
vector 566  RSUExampleScenario.node[62].veinsmobility  posx  ETV
vector 567  RSUExampleScenario.node[62].veinsmobility  posy  ETV
vector 568  RSUExampleScenario.node[62].veinsmobility  speed  ETV
vector 569  RSUExampleScenario.node[62].veinsmobility  acceleration  ETV
vector 570  RSUExampleScenario.node[62].veinsmobility  co2emission  ETV
vector 575  RSUExampleScenario.node[63].veinsmobility  posx  ETV
vector 576  RSUExampleScenario.node[63].veinsmobility  posy  ETV
vector 577  RSUExampleScenario.node[63].veinsmobility  speed  ETV
vector 578  RSUExampleScenario.node[63].veinsmobility  acceleration  ETV
vector 579  RSUExampleScenario.node[63].veinsmobility  co2emission  ETV
vector 584  RSUExampleScenario.node[64].veinsmobility  posx  ETV
vector 585  RSUExampleScenario.node[64].veinsmobility  posy  ETV
vector 586  RSUExampleScenario.node[64].veinsmobility  speed  ETV
vector 587  RSUExampleScenario.node[64].veinsmobility  acceleration  ETV
vector 588  RSUExampleScenario.node[64].veinsmobility  co2emission  ETV
vector 593  RSUExampleScenario.node[65].veinsmobility  posx  ETV
vector 594  RSUExampleScenario.node[65].veinsmobility  posy  ETV
vector 595  RSUExampleScenario.node[65].veinsmobility  speed  ETV
vector 596  RSUExampleScenario.node[65].veinsmobility  acceleration  ETV
vector 597  RSUExampleScenario.node[65].veinsmobility  co2emission  ETV
vector 602  RSUExampleScenario.node[66].veinsmobility  posx  ETV
vector 603  RSUExampleScenario.node[66].veinsmobility  posy  ETV
vector 604  RSUExampleScenario.node[66].veinsmobility  speed  ETV
vector 605  RSUExampleScenario.node[66].veinsmobility  acceleration  ETV
vector 606  RSUExampleScenario.node[66].veinsmobility  co2emission  ETV
vector 611  RSUExampleScenario.node[67].veinsmobility  posx  ETV
vector 612  RSUExampleScenario.node[67].veinsmobility  posy  ETV
vector 613  RSUExampleScenario.node[67].veinsmobility  speed  ETV
vector 614  RSUExampleScenario.node[67].veinsmobility  acceleration  ETV
vector 615  RSUExampleScenario.node[67].veinsmobility  co2emission  ETV
vector 620  RSUExampleScenario.node[68].veinsmobility  posx  ETV
vector 621  RSUExampleScenario.node[68].veinsmobility  posy  ETV
vector 622  RSUExampleScenario.node[68].veinsmobility  speed  ETV
vector 623  RSUExampleScenario.node[68].veinsmobility  acceleration  ETV
vector 624  RSUExampleScenario.node[68].veinsmobility  co2emission  ETV
vector 629  RSUExampleScenario.node[69].veinsmobility  posx  ETV
vector 630  RSUExampleScenario.node[69].veinsmobility  posy  ETV
vector 631  RSUExampleScenario.node[69].veinsmobility  speed  ETV
vector 632  RSUExampleScenario.node[69].veinsmobility  acceleration  ETV
vector 633  RSUExampleScenario.node[69].veinsmobility  co2emission  ETV
vector 638  RSUExampleScenario.node[70].veinsmobility  posx  ETV
vector 639  RSUExampleScenario.node[70].veinsmobility  posy  ETV
vector 640  RSUExampleScenario.node[70].veinsmobility  speed  ETV
vector 641  RSUExampleScenario.node[70].veinsmobility  acceleration  ETV
vector 642  RSUExampleScenario.node[70].veinsmobility  co2emission  ETV
vector 647  RSUExampleScenario.node[71].veinsmobility  posx  ETV
vector 648  RSUExampleScenario.node[71].veinsmobility  posy  ETV
vector 649  RSUExampleScenario.node[71].veinsmobility  speed  ETV
vector 650  RSUExampleScenario.node[71].veinsmobility  acceleration  ETV
vector 651  RSUExampleScenario.node[71].veinsmobility  co2emission  ETV
vector 656  RSUExampleScenario.node[72].veinsmobility  posx  ETV
vector 657  RSUExampleScenario.node[72].veinsmobility  posy  ETV
vector 658  RSUExampleScenario.node[72].veinsmobility  speed  ETV
vector 659  RSUExampleScenario.node[72].veinsmobility  acceleration  ETV
vector 660  RSUExampleScenario.node[72].veinsmobility  co2emission  ETV
vector 665  RSUExampleScenario.node[73].veinsmobility  posx  ETV
vector 666  RSUExampleScenario.node[73].veinsmobility  posy  ETV
vector 667  RSUExampleScenario.node[73].veinsmobility  speed  ETV
vector 668  RSUExampleScenario.node[73].veinsmobility  acceleration  ETV
vector 669  RSUExampleScenario.node[73].veinsmobility  co2emission  ETV
vector 674  RSUExampleScenario.node[74].veinsmobility  posx  ETV
vector 675  RSUExampleScenario.node[74].veinsmobility  posy  ETV
vector 676  RSUExampleScenario.node[74].veinsmobility  speed  ETV
vector 677  RSUExampleScenario.node[74].veinsmobility  acceleration  ETV
vector 678  RSUExampleScenario.node[74].veinsmobility  co2emission  ETV
vector 683  RSUExampleScenario.node[75].veinsmobility  posx  ETV
vector 684  RSUExampleScenario.node[75].veinsmobility  posy  ETV
vector 685  RSUExampleScenario.node[75].veinsmobility  speed  ETV
vector 686  RSUExampleScenario.node[75].veinsmobility  acceleration  ETV
vector 687  RSUExampleScenario.node[75].veinsmobility  co2emission  ETV
vector 692  RSUExampleScenario.node[76].veinsmobility  posx  ETV
vector 693  RSUExampleScenario.node[76].veinsmobility  posy  ETV
vector 694  RSUExampleScenario.node[76].veinsmobility  speed  ETV
vector 695  RSUExampleScenario.node[76].veinsmobility  acceleration  ETV
vector 696  RSUExampleScenario.node[76].veinsmobility  co2emission  ETV
vector 701  RSUExampleScenario.node[77].veinsmobility  posx  ETV
vector 702  RSUExampleScenario.node[77].veinsmobility  posy  ETV
vector 703  RSUExampleScenario.node[77].veinsmobility  speed  ETV
vector 704  RSUExampleScenario.node[77].veinsmobility  acceleration  ETV
vector 705  RSUExampleScenario.node[77].veinsmobility  co2emission  ETV
vector 710  RSUExampleScenario.node[78].veinsmobility  posx  ETV
vector 711  RSUExampleScenario.node[78].veinsmobility  posy  ETV
vector 712  RSUExampleScenario.node[78].veinsmobility  speed  ETV
vector 713  RSUExampleScenario.node[78].veinsmobility  acceleration  ETV
vector 714  RSUExampleScenario.node[78].veinsmobility  co2emission  ETV
vector 719  RSUExampleScenario.node[79].veinsmobility  posx  ETV
vector 720  RSUExampleScenario.node[79].veinsmobility  posy  ETV
vector 721  RSUExampleScenario.node[79].veinsmobility  speed  ETV
vector 722  RSUExampleScenario.node[79].veinsmobility  acceleration  ETV
vector 723  RSUExampleScenario.node[79].veinsmobility  co2emission  ETV
vector 728  RSUExampleScenario.node[80].veinsmobility  posx  ETV
vector 729  RSUExampleScenario.node[80].veinsmobility  posy  ETV
vector 730  RSUExampleScenario.node[80].veinsmobility  speed  ETV
vector 731  RSUExampleScenario.node[80].veinsmobility  acceleration  ETV
vector 732  RSUExampleScenario.node[80].veinsmobility  co2emission  ETV
vector 737  RSUExampleScenario.node[81].veinsmobility  posx  ETV
vector 738  RSUExampleScenario.node[81].veinsmobility  posy  ETV
vector 739  RSUExampleScenario.node[81].veinsmobility  speed  ETV
vector 740  RSUExampleScenario.node[81].veinsmobility  acceleration  ETV
vector 741  RSUExampleScenario.node[81].veinsmobility  co2emission  ETV
vector 746  RSUExampleScenario.node[82].veinsmobility  posx  ETV
vector 747  RSUExampleScenario.node[82].veinsmobility  posy  ETV
vector 748  RSUExampleScenario.node[82].veinsmobility  speed  ETV
vector 749  RSUExampleScenario.node[82].veinsmobility  acceleration  ETV
vector 750  RSUExampleScenario.node[82].veinsmobility  co2emission  ETV
vector 755  RSUExampleScenario.node[83].veinsmobility  posx  ETV
vector 756  RSUExampleScenario.node[83].veinsmobility  posy  ETV
vector 757  RSUExampleScenario.node[83].veinsmobility  speed  ETV
vector 758  RSUExampleScenario.node[83].veinsmobility  acceleration  ETV
vector 759  RSUExampleScenario.node[83].veinsmobility  co2emission  ETV
vector 764  RSUExampleScenario.node[84].veinsmobility  posx  ETV
vector 765  RSUExampleScenario.node[84].veinsmobility  posy  ETV
vector 766  RSUExampleScenario.node[84].veinsmobility  speed  ETV
vector 767  RSUExampleScenario.node[84].veinsmobility  acceleration  ETV
vector 768  RSUExampleScenario.node[84].veinsmobility  co2emission  ETV
vector 773  RSUExampleScenario.node[85].veinsmobility  posx  ETV
vector 774  RSUExampleScenario.node[85].veinsmobility  posy  ETV
vector 775  RSUExampleScenario.node[85].veinsmobility  speed  ETV
vector 776  RSUExampleScenario.node[85].veinsmobility  acceleration  ETV
vector 777  RSUExampleScenario.node[85].veinsmobility  co2emission  ETV
vector 782  RSUExampleScenario.node[86].veinsmobility  posx  ETV
vector 783  RSUExampleScenario.node[86].veinsmobility  posy  ETV
vector 784  RSUExampleScenario.node[86].veinsmobility  speed  ETV
vector 785  RSUExampleScenario.node[86].veinsmobility  acceleration  ETV